 --invoking executable--
/home/orgChemistry/bin/cfour_v21/bin/xjoda


   *************************************************************************
         <<<     CCCCCC     CCCCCC   |||     CCCCCC     CCCCCC   >>>
       <<<      CCC        CCC       |||    CCC        CCC         >>>
      <<<      CCC        CCC        |||   CCC        CCC            >>>
    <<<        CCC        CCC        |||   CCC        CCC              >>>
      <<<      CCC        CCC        |||   CCC        CCC            >>>
       <<<      CCC        CCC       |||    CCC        CCC         >>>
         <<<     CCCCCC     CCCCCC   |||     CCCCCC     CCCCCC   >>>
   *************************************************************************

     ****************************************************************
     * CFOUR Coupled-Cluster techniques for Computational Chemistry *
     ****************************************************************
 

   Department of Chemistry                Institut fuer Physikalische Chemie
   University of Florida                  Universitaet Mainz
   Gainesville, FL 32611, USA             D-55099 Mainz, Germany

   Department of Chemistry                Fakultaet fuer Chemie und Biowiss.
   Johns Hopkins University               Karlsruher Institut fuer Technologie
   Baltimore, MD 21218, USA               D-76131 Karlsruhe, Germany

   Department of Chemistry                Department of Physical Chemistry
   Southern Methodist University          Eotvos Lorand University
   Dallas, TX 75275, USA                  H-1053 Budapest, Hungary

 
                       Version 2.1
 
                     node2-110                                         
                     Wed Jan 27 19:45:51 CET 2021                      
                     integer*8 version is running
 
********************************************************************************
*                          Input from ZMAT file                                *
********************************************************************************
title                                                                           
C                                                                               
N 1 R12*                                                                        
O 1 R13* 2 A213*                                                                
H 1 R14* 3 A314* 2 D2314*                                                       
                                                                                
R12           =        1.24985650                                               
R13           =        1.30047391                                               
A213          =        88.20574231                                              
R14           =        1.08361021                                               
A314          =        131.83875873                                             
D2314         =        180.00000000                                             
                                                                                
*CFOUR(CALC=CCSD(T),BASIS=cc-pVTZ,FROZEN_CORE=1                                 
       CONVERGENCE=8                                                            
       MEMORY_SIZE=5000,MEM_UNIT=MB,ABCDTYPE=AOBASIS,CC_PROG=ECC                
       MULTIPLICITY=1,CHARGE=0                                                  
       SCF_CONV=8,CC_CONV=10)                                                   
                                                                                
********************************************************************************
    -------------------------------------------------------------------
                    CFOUR Control Parameters 
    -------------------------------------------------------------------
        External           Internal           Value            Units
          Name               Name
    -------------------------------------------------------------------
       ABCDTYPE             IABCDT         AOBASIS     [  2]    ***   
       ANHARMONIC           IANHAR         OFF         [  0]    ***   
       ANH_ALGORIT          IANALG         STANDARD    [  0]    ***   
       ANH_DERIVAT          IANDER         SECOND      [  1]    ***   
       ANH_MODE             ANHMOD         VIBRATION   [  0]    ***   
       ANH_STEPSIZ          ICUBST             50000          x 10-6  
       ANH_SYMMETR          IANHSM         ABELIAN     [  0]    ***   
       AO_LADDERS           IAOLAD         SINGLEPASS  [  1]    ***   
       AV_SCF               IAVSCF         OFF         [  0]    ***   
       BASIS                IBASIS         PVTZ        [ 14]    ***   
       BOTHVECTORS          BOTHVC         OFF         [  0]    ***   
       BOX_POTENT           IPIAB          OFF         [  0]    ***   
       BREIT                IBREIT         OFF         [  0]    ***   
       BRUCK_CONV           IBRTOL          10D-  4             ***   
       BRUECKNER            IBRKNR         OFF         [  0]    ***   
       BUFFERSIZE           IBUFFS              4096            ***   
       CACHE_RECS           ICHREC             10               ***   
       CALCLEVEL            ICLLVL         CCSD(T)     [ 22]    ***   
       CCORBOPT             ICCORB         OFF         [  0]  x 0.01  
       CC_CONV              ICCCNV          10D- 10             ***   
       CC_EXPORDER          ICCEOR              5               ***   
       CC_EXTRAPOL          ICCEXT         DIIS        [  1]    ***   
       CC_GUESS             ICCGES         MP2         [  0]    ***   
       CC_MAXCYC            ICCCYC            100              cycles 
       CC_PROGRAM           ICCPRO         ECC         [  1]    ***   
       CHARGE               ICHRGE              0               ***   
       CHOLESKY             ICHOLE         OFF         [  0]    ***   
       CIS_CONV             ICISTL              5               ***   
       COMM_SIZE            IPSIZE            ***               ***   
       CONSTANT             ICONST         OLD         [  1]    ***   
       CONTINUUM            ICONTU         NONE        [  0]    ***   
       CONTRACTION          ICNTYP         GENERAL     [  1]    ***   
       COORDINATES          ICOORD         INTERNAL    [  0]    ***   
       CPHF_CONVER          ICPHFT          10D- 16             ***   
       CPHF_MAXCYC          ICPHFC             64              cycles 
       CUBIC                ICUBIC         OFF         [  0]    ***   
       CURVILINEAR          ICURVY         OFF         [  0]    ***   
       DBOC                 IDBOC          OFF         [  0]    ***   
       DCT                  IDCT           OFF         [  0]    ***   
       DERIV_LEV            IDRLVL         FIRST       [  1]    ***   
       DEVMEM_SIZE          IDVMEM         *********           MByte  
       DIAG_MRCC            IEOMST          10D-  0             ***   
       DIFF_TYPE            IDIFTY         RELAXED     [  0]    ***   
       DIRECT               IDIRCT         OFF         [  0]    ***   
       DROPMO               IDRPMO      NONE         
       ECP                  IECP           OFF         [  0]    ***   
       EIGENVECTOR          IVEC                1               ***   
       EL_ANHARM            IELANH         OFF         [  0]    ***   
       EOMFOLLOW            IEOMSR         ENERGY      [  0]    ***   
       EOMIP                IEOMIP         OFF         [  0]    ***   
       EOMLEVEL             HBARFM         SAME        [  0]    ***   
       EOM_MRCC             IMRCCE         NEW         [  1]    ***   
       EOM_NONIT            EOMNON         OFF         [  0]    ***   
       EOM_NSING            IEOMSI          10D-  0             ***   
       EOM_NSTATES          IMRCCD         DAVIDSON    [  0]    ***   
       EOM_NTRIP            IEOMTR          10D-  0             ***   
       EOM_ORDER            IEXORD         ENERGY      [  0]    ***   
       EOM_PROPSTA          IEOMST              0               ***   
       ESTATE_CONV          IEXTOL          10D-  5             ***   
       ESTATE_DIAG          IEXDIG         ITERATIVE   [  0]    ***   
       ESTATE_LOCK          IESLOC         ON          [  1]    ***   
       ESTATE_MAXC          IEXMXC             40               ***   
       ESTATE_PROP          IEXPRP         OFF         [  0]    ***   
       EVAL_HESS            IRECAL              0            # of cyc.
       EXCITATION           IEXCIT              0               ***   
       EXCITE               IEXCIT         NONE        [  0]    ***   
       EXTERN_POT           IEXPOT         OFF         [  0]    ***   
       FCGRADNEW            IFCGNW         OFF         [  0]    ***   
       FC_FIELD             IFINFC              0             x 10-6  
       FD_CALTYPE           IFDCAL         GRADONLY    [  0]    ***   
       FD_PROJECT           IFDPRJ         OFF         [  1]    ***   
       FD_STEPSIZE          IDISFD              0            10-4 bohr
       FD_USEGROUP          IFDGRP         FULL        [  0]    ***   
       FILE_RECSIZ          IFLREC              4096           words  
       FINITE_PERT          IFIPER              0             x 10-6  
       FIXGEOM              IFIXGM         OFF         [  0]    ***   
       FOCK                 IFOCK          AO          [  1]    ***   
       FREQ_ALGORI          IVIALG         STANDARD    [  0]    ***   
       FROZEN_CORE          IFROCO         ON          [  1]    ***   
       GAMMA_ABCD           IGABCD         DIRECT      [  1]    ***   
       GAMMA_ABCI           IGABCI         STORE       [  0]    ***   
       GENBAS_1             IGNBS1              0               ***   
       GENBAS_2             IGNBS2              0               ***   
       GENBAS_3             IGNBS3              0               ***   
       GENBAS_4             IGNBS4              0               ***   
       GEO_CONV             ICONTL              8              H/bohr 
       GEO_MAXCYC           IOPTCY             50               ***   
       GEO_MAXSTEP          IMXSTP            300            millibohr
       GEO_METHOD           INR            NR          [  0]    ***   
       GIAO                 IGIAO          OFF         [  1]    ***   
       GIMIC                IGIMIC         OFF         [  0]    ***   
       GRID                 IGRID          OFF         [  0]    ***   
       GRID_ALGO            IGALGO         SERIAL      [  0]    ***   
       GUESS                IGUESS         MOREAD      [  0]    ***   
       HBAR                 IHBAR          OFF         [  0]    ***   
       HESS_TYPE            IHESTP         SCF         [  0]    ***   
       HF2_FILE             IHF2Fl         USE         [  1]    ***   
       HFSTABILITY          ISTABL         OFF         [  0]    ***   
       INCORE               INCORE         OFF         [  0]    ***   
       INPUT_MRCC           IMRCC          ON          [  1]    ***   
       INTEGRALS            INTTYP         VMOL        [  1]    ***   
       JODA_PRINT           IJPRNT              0               ***   
       KEYWORD_OUT          IDMPKW         NO          [  0]    ***   
       LINDEP_TOL           ILINDP              8               ***   
       LINEQ_CONV           IZTACN          10D-  7           cycles  
       LINEQ_EXPOR          ILMAXD              5               ***   
       LINEQ_MAXCY          ILMAXC            100               ***   
       LINEQ_TYPE           ILTYPE         DIIS        [  1]    ***   
       LOCK_ORBOCC          ILOCOC         OFF         [  0]    ***   
       MEMORY_SIZE          IMEMSZ         625000000           words  
       MEM_UNIT             IMEMU          MB          [  2]    ***   
       MRCC                 IMRCCC         OFF         [  0]    ***   
       MULTIPLICTY          IMULTP              1               ***   
       NACOUPLING           IVCOUP         OFF         [  0]    ***   
       NEGEVAL              IDIE           ABORT       [  0]    ***   
       NEWNORM              INEWNO         OFF         [  0]    ***   
       NON-HF               INONHF         OFF         [  0]    ***   
       NTOP_TAMP            ITOPT2             15               ***   
       NUC_MODEL            INUCMO         POINT       [  0]    ***   
       OCCUPATION           IOCCU   ESTIMATED BY SCF 
       OPEN-SHELL           IOPEN          SPIN-ORBITAL[  0]    ***   
       OPTVIB               IOPTVB         OFF         [  0]    ***   
       ORBITALS             IORBTP         STANDARD    [  0]    ***   
       PARALLEL             IPARAL         ON          [  1]    ***   
       PARA_INT             IPINTS         ON          [  1]    ***   
       PARA_PRINT           IPPRIN              0               ***   
       PERT_ORB             IPTORB         CANONICAL   [  1]    ***   
       POINTS               IGRDFD              0               ***   
       PRINT                IPRNT               0               ***   
       PROPS                IPROPS         OFF         [  0]    ***   
       PROP_INTEGR          IINTYP         INTERNAL    [  0]    ***   
       PSI                  IPSI           OFF         [  0]    ***   
       QC_ALG               IQCALG         FLM         [  0]    ***   
       QC_LINALG            IQCLIN         TRIDIAG     [  2]    ***   
       QC_MAXCYC            IQCMAX          10D-100           cycles  
       QC_MAXSCFCY          IQCMSC          10D- 15           cycles  
       QC_RTRUST            IQCRTR          10D-  0           x 10-3  
       QC_SKIPSCF           IQCSKI         OFF         [  0]    ***   
       QC_START             IQCSTA          10D-  1             ***   
       QRHFGUESS            IQGUES         OFF         [  0]    ***   
       QUARTIC              IQUART         OFF         [  0]    ***   
       RAMAN_INT            IRAMIN         OFF         [  0]    ***   
       RAMAN_ORB            IRAMRE         UNRELAXED   [  0]    ***   
       RDO                  IRDOFM         ON          [  1]    ***   
       REDUCE_REPR          REDREP         Ir          [  0]    ***   
       REFERENCE            IREFNC         RHF         [  0]    ***   
       RELATIVIST           IRELAT         OFF         [  0]    ***   
       RELAX_DENS           IRDENS         ON          [  1]    ***   
       RESET_FLAGS          IRESET         OFF         [  0]    ***   
       RESTART_CC           ICCRES         OFF         [  0]    ***   
       ROT_EVEC             ROTVEC              0               ***   
       SAVE_INTS            ISVINT         OFF         [  0]    ***   
       SCALE_ON             ISTCRT              0               ***   
       SCF_CONV             ISCFCV          10D-  8             ***   
       SCF_DAMPING          IDAMP               0             x 10-3  
       SCF_EXPORDE          IRPPOR              6               ***   
       SCF_EXPSTAR          IRPPLS              8               ***   
       SCF_EXTRAPO          IRPP           ON          [  1]    ***   
       SCF_MAXCYC           ISCFCY            150              cycles 
       SCF_NOSTOP           ISCFST         OFF         [  0]    ***   
       SCF_PRINT            ISCFPR              0               ***   
       SCF_PROG             ISCFPR         SCF         [  0]    ***   
       SD_FIELD             IFINSD              0             x 10-6  
       SOPERT               IPERSO         OFF         [  0]    ***   
       SPHERICAL            IDFGHI         ON          [  1]    ***   
       SPINORBIT            ISOCAL         OFF         [  0]    ***   
       SPINROTATIO          ISRCON         OFF         [  0]    ***   
       SPIN_FLIP            ISPFLP         OFF         [  0]    ***   
       SPIN_ORBIT           ISPORB         OFF         [  0]    ***   
       SPIN_SCAL            ISCSMP         OFF         [  0]    ***   
       STEEPSCALE           ISTPSC              1000          x 10-3  
       SUBGROUP             ISUBGP         DEFAULT     [  0]    ***   
       SUBGRPAXIS           ISBXYZ         X           [  0]    ***   
       SYMMETRY             ISYM           ON          [  0]    ***   
       SYM_CHECK            ISYMCK         OVERRIDE    [  1]    ***   
       T3_EXTRAPOL          IT3EXT         OFF         [  0]    ***   
       T4_EXTRAPOL          IT4EXP         OFF         [  0]    ***   
       TAMP_SUM             IEVERY              5               ***   
       TESTSUITE            ITESTS         OFF         [  0]    ***   
       THERMOCH             ITHERM         OFF         [  0]    ***   
       TOL_CHOLESK          ITOLCH          10D-  4             ***   
       TRANGRAD             IRESRM         OFF         [  0]    ***   
       TRANS_INV            ITRAIN         USE         [  0]    ***   
       TREAT_PERT           ITREAT         SIMULTANEOUS[  0]    ***   
       TRIP_ALGORI          ITRALG         NORMAL      [  0]    ***   
       UIJ_THRESHO          IUIJTH              1               ***   
       UNITS                IUNITS         ANGSTROM    [  0]    ***   
       UNOS                 IUNOS          OFF         [  0]    ***   
       UPDATE_HESS          IHUPDT         ON          [  1]    ***   
       VIBPHASE             ISETPH         STANDARD    [  0]    ***   
       VIBRATION            IVIB           NO          [  0]    ***   
       VIB_ALGORIT          IGEALG         STANDARD    [  0]    ***   
       VNATORB              IVNORB         OFF         [  0]    ***   
       VTRAN                IVTRAN         PARTIAL     [  2]    ***   
       XFIELD               IXEFLD              0             x 10-6  
       XFORM_TOL            IXFTOL          10D- 11             ***   
       YFIELD               IYEFLD              0             x 10-6  
       ZFIELD               IZEFLD              0             x 10-6  
       ZSCALE_EXP           IZEXPS         OFF         [  0]    ***   
    -------------------------------------------------------------------
   4 entries found in Z-matrix 
   Job Title : title                                                                           
   There are  6 unique internal coordinates.
   Of these,  6 will be optimized.
   User supplied Z-matrix: 
--------------------------------------------------------------------------------
       SYMBOL    BOND      LENGTH    ANGLE     ANGLE     DIHED     ANGLE
                  TO      (ANGST)    WRT      (DEG)      WRT      (DEG)
--------------------------------------------------------------------------------
        C    
        N          1         R12  
        O          1         R13        2        A213 
        H          1         R14        3        A314       2        D2314
                  *Initial values for internal coordinates* 
                      Name             Value
                        R12             1.2498565000
                        R13             1.3004739100
                        A213           88.2057423100
                        R14             1.0836102100
                        A314          131.8387587300
                        D2314         180.0000000000
--------------------------------------------------------------------------------
   Rotational constants (in cm-1): 
          0.4994405510             0.7127027553             1.6690845810
   Rotational constants (in MHz): 
      14972.8531400088         21366.2940769610         50037.9039261268
********************************************************************************
   The full molecular point group is C s .
   The largest Abelian subgroup of the full molecular point group is C s .
   The computational point group is C s .
********************************************************************************
--------------------------------------------------------------------------------
   Analysis of internal coordinates specified by Z-matrix 
--------------------------------------------------------------------------------
   *The nuclear repulsion energy is   60.569157405920464 a.u.
  *WARNING* Parameter D2314[  6] cannot have a nonzero derivative,
    but is being optimized.  Reconstruction of Z-matrix recommended.
   *There are   5 degrees of freedom within the tot. symm. molecular subspace.
   *Z-matrix requests optimization of   6 coordinates.
   *The following   5 parameters can have non-zero 
    derivatives within the totally symmetric subspace:
             A314 [ 5]  R14  [ 4]  A213 [ 3]  R12  [ 1]  R13  [ 2]
   *The following   6 parameters are to be optimized:
             R12  [ 1]  R13  [ 2]  A213 [ 3]  R14  [ 4]  A314 [ 5]  D2314[ 6]

--------------------------------------------------------------------------------


 ----------------------------------------------------------------
         Coordinates used in calculation (QCOMP) 
 ----------------------------------------------------------------
 Z-matrix   Atomic            Coordinates (in bohr)
  Symbol    Number           X              Y              Z
 ----------------------------------------------------------------
     C         6        -0.19379011     1.14918144     0.00000000
     N         7        -1.70137526    -0.66897617     0.00000000
     O         8         1.64795771    -0.47792274    -0.00000000
     H         1        -0.20735532     3.19686346     0.00000000
 ----------------------------------------------------------------
 
   Interatomic distance matrix (Angstroms) 
 
                 C             N             O             H    
                [ 1]        [ 2]        [ 3]        [ 4]
  C    [ 1]     0.00000
  N    [ 2]     1.24986     0.00000
  O    [ 3]     1.30047     1.77527     0.00000
  H    [ 4]     1.08361     2.19317     2.17840     0.00000
 rotcon2
   Rotational constants (in cm-1): 
          1.6690845810             0.7127027553             0.4994405510
   Rotational constants (in MHz): 
      50037.9039261267         21366.2940769610         14972.8531400088
  There are   3 frozen-core orbitals.
  There are  104 basis functions.
 @CHECKOUT-I, Total execution time (CPU/WALL):        0.10/       0.26 seconds.
--executable xjoda finished with status     0 in        0.37 seconds (walltime).
 --invoking executable--
/home/orgChemistry/bin/cfour_v21/bin/xvmol
 SERIAL VERSION OF MOLECULE STARTED
********************************************************************************
                    INPUT FROM MOL FILE
********************************************************************************
INTGRL        1    0    1    0    0    0    0    0    0                         
         *** CFOUR Program System (Release V0.1) ***                            
title                                                                           
    4    1 Z          0.10E-08              0    0                              
   9999.00      3.00                                                            
          6.00000000    1    4    1    1    1    1                              
C #1  -0.193790109464711   1.149181435904974   0.000000000000000                
   10    4                                                                      
   8236.00000000000       5.310000000000000E-004 -1.130000000000000E-004        
  0.000000000000000E+000  0.000000000000000E+000                                
   1235.00000000000       4.108000000000000E-003 -8.780000000000000E-004        
  0.000000000000000E+000  0.000000000000000E+000                                
   280.800000000000       2.108700000000000E-002 -4.540000000000000E-003        
  0.000000000000000E+000  0.000000000000000E+000                                
   79.2700000000000       8.185300000000000E-002 -1.813300000000000E-002        
  0.000000000000000E+000  0.000000000000000E+000                                
   25.5900000000000       0.234817000000000      -5.576000000000000E-002        
  0.000000000000000E+000  0.000000000000000E+000                                
   8.99700000000000       0.434401000000000      -0.126895000000000             
  0.000000000000000E+000  0.000000000000000E+000                                
   3.31900000000000       0.346129000000000      -0.170352000000000             
  0.000000000000000E+000  0.000000000000000E+000                                
  0.905900000000000       3.937800000000000E-002  0.140382000000000             
   1.00000000000000       0.000000000000000E+000                                
  0.364300000000000      -8.983000000000000E-003  0.598684000000000             
  0.000000000000000E+000  0.000000000000000E+000                                
  0.128500000000000       2.385000000000000E-003  0.395389000000000             
  0.000000000000000E+000   1.00000000000000                                     
    5    3                                                                      
   18.7100000000000       1.403100000000000E-002  0.000000000000000E+000        
  0.000000000000000E+000                                                        
   4.13300000000000       8.686600000000000E-002  0.000000000000000E+000        
  0.000000000000000E+000                                                        
   1.20000000000000       0.290216000000000       0.000000000000000E+000        
  0.000000000000000E+000                                                        
  0.382700000000000       0.501008000000000        1.00000000000000             
  0.000000000000000E+000                                                        
  0.120900000000000       0.343406000000000       0.000000000000000E+000        
   1.00000000000000                                                             
    2    2                                                                      
   1.09700000000000        1.00000000000000       0.000000000000000E+000        
  0.318000000000000       0.000000000000000E+000   1.00000000000000             
    1    1                                                                      
  0.761000000000000        1.00000000000000                                     
          7.00000000    1    4    1    1    1    1                              
N #2  -1.701375263386450  -0.668976171873270   0.000000000000000                
   10    4                                                                      
   11420.0000000000       5.230000000000000E-004 -1.150000000000000E-004        
  0.000000000000000E+000  0.000000000000000E+000                                
   1712.00000000000       4.045000000000000E-003 -8.950000000000000E-004        
  0.000000000000000E+000  0.000000000000000E+000                                
   389.300000000000       2.077500000000000E-002 -4.624000000000000E-003        
  0.000000000000000E+000  0.000000000000000E+000                                
   110.000000000000       8.072699999999999E-002 -1.852800000000000E-002        
  0.000000000000000E+000  0.000000000000000E+000                                
   35.5700000000000       0.233074000000000      -5.733900000000000E-002        
  0.000000000000000E+000  0.000000000000000E+000                                
   12.5400000000000       0.433501000000000      -0.132076000000000             
  0.000000000000000E+000  0.000000000000000E+000                                
   4.64400000000000       0.347472000000000      -0.172510000000000             
  0.000000000000000E+000  0.000000000000000E+000                                
   1.29300000000000       4.126200000000000E-002  0.151814000000000             
   1.00000000000000       0.000000000000000E+000                                
  0.511800000000000      -8.508000000000000E-003  0.599944000000000             
  0.000000000000000E+000  0.000000000000000E+000                                
  0.178700000000000       2.384000000000000E-003  0.387462000000000             
  0.000000000000000E+000   1.00000000000000                                     
    5    3                                                                      
   26.6300000000000       1.467000000000000E-002  0.000000000000000E+000        
  0.000000000000000E+000                                                        
   5.94800000000000       9.176400000000000E-002  0.000000000000000E+000        
  0.000000000000000E+000                                                        
   1.74200000000000       0.298683000000000       0.000000000000000E+000        
  0.000000000000000E+000                                                        
  0.555000000000000       0.498487000000000        1.00000000000000             
  0.000000000000000E+000                                                        
  0.172500000000000       0.337023000000000       0.000000000000000E+000        
   1.00000000000000                                                             
    2    2                                                                      
   1.65400000000000        1.00000000000000       0.000000000000000E+000        
  0.469000000000000       0.000000000000000E+000   1.00000000000000             
    1    1                                                                      
   1.09300000000000        1.00000000000000                                     
          8.00000000    1    4    1    1    1    1                              
O #3   1.647957711846369  -0.477922739296107  -0.000000000000000                
   10    4                                                                      
   15330.0000000000       5.080000000000000E-004 -1.150000000000000E-004        
  0.000000000000000E+000  0.000000000000000E+000                                
   2299.00000000000       3.929000000000000E-003 -8.950000000000000E-004        
  0.000000000000000E+000  0.000000000000000E+000                                
   522.400000000000       2.024300000000000E-002 -4.636000000000000E-003        
  0.000000000000000E+000  0.000000000000000E+000                                
   147.300000000000       7.918100000000000E-002 -1.872400000000000E-002        
  0.000000000000000E+000  0.000000000000000E+000                                
   47.5500000000000       0.230687000000000      -5.846300000000000E-002        
  0.000000000000000E+000  0.000000000000000E+000                                
   16.7600000000000       0.433118000000000      -0.136463000000000             
  0.000000000000000E+000  0.000000000000000E+000                                
   6.20700000000000       0.350260000000000      -0.175740000000000             
  0.000000000000000E+000  0.000000000000000E+000                                
   1.75200000000000       4.272800000000000E-002  0.160934000000000             
   1.00000000000000       0.000000000000000E+000                                
  0.688200000000000      -8.154000000000000E-003  0.603418000000000             
  0.000000000000000E+000  0.000000000000000E+000                                
  0.238400000000000       2.381000000000000E-003  0.378765000000000             
  0.000000000000000E+000   1.00000000000000                                     
    5    3                                                                      
   34.4600000000000       1.592800000000000E-002  0.000000000000000E+000        
  0.000000000000000E+000                                                        
   7.74900000000000       9.974000000000000E-002  0.000000000000000E+000        
  0.000000000000000E+000                                                        
   2.28000000000000       0.310492000000000       0.000000000000000E+000        
  0.000000000000000E+000                                                        
  0.715600000000000       0.491026000000000        1.00000000000000             
  0.000000000000000E+000                                                        
  0.214000000000000       0.336337000000000       0.000000000000000E+000        
   1.00000000000000                                                             
    2    2                                                                      
   2.31400000000000        1.00000000000000       0.000000000000000E+000        
  0.645000000000000       0.000000000000000E+000   1.00000000000000             
    1    1                                                                      
   1.42800000000000        1.00000000000000                                     
          1.00000000    1    3    1    1    1                                   
H #4  -0.207355320245231   3.196863455801483   0.000000000000001                
    5    3                                                                      
   33.8700000000000       6.068000000000000E-003  0.000000000000000E+000        
  0.000000000000000E+000                                                        
   5.09500000000000       4.530800000000000E-002  0.000000000000000E+000        
  0.000000000000000E+000                                                        
   1.15900000000000       0.202822000000000       0.000000000000000E+000        
  0.000000000000000E+000                                                        
  0.325800000000000       0.503903000000000        1.00000000000000             
  0.000000000000000E+000                                                        
  0.102700000000000       0.383421000000000       0.000000000000000E+000        
   1.00000000000000                                                             
    2    2                                                                      
   1.40700000000000        1.00000000000000       0.000000000000000E+000        
  0.388000000000000       0.000000000000000E+000   1.00000000000000             
    1    1                                                                      
   1.05700000000000        1.00000000000000                                     
FINISH                                                                          
 
********************************************************************************
 ONE- AND TWO-ELECTRON INTEGRALS OVER SYMMETRY-ADAPTED AOS ARE CALCULATED.

  SPHERICAL HARMONICS ARE USED.
  
  INTEGRALS LESS THAN  0.10E-13 ARE NEGLECTED.

  NUCLEAR REPULSION ENERGY :   60.5691574059 A.U.
  @MOLECU-I, ONE ELECTRON INTEGRALS (CPU/WALL):        0.03/       0.03 SECONDS.
  @TWOEL-I,    3208898 INTEGRALS OF SYMMETRY TYPE  I I I I
  @TWOEL-I,    2785280 INTEGRALS OF SYMMETRY TYPE  I J I J
  @TWOEL-I,    1451192 INTEGRALS OF SYMMETRY TYPE  I I J J
  @TWOEL-I, TOTAL NUMBER OF 2-E INTEGRALS    7445370.
  @MOLECU-I, TWO ELECTRON INTEGRALS (CPU/WALL):        3.52/       3.80 SECONDS.
 @CHECKOUT-I, Total execution time (CPU/WALL):        3.55/       3.86 seconds.

Running with 24 threads/proc

--executable xvmol finished with status     0 in        3.99 seconds (walltime).
 --invoking executable--
/home/orgChemistry/bin/cfour_v21/bin/xvmol2ja
 @GETMEM-I,  Allocated    4768 MB of main memory.
 @CHECKOUT-I, Total execution time (CPU/WALL):        0.01/       0.01 seconds.
--executable xvmol2ja finished with status     0 in        0.11 seconds (walltime).
 --invoking executable--
/home/orgChemistry/bin/cfour_v21/bin/xvscf
  There are  104 functions in the AO basis.

  There are 2 irreducible representations.

       Irrep        # of functions
         1                 70
         2                 34


  Parameters for SCF calculation: 
        SCF reference function:  RHF  
  Maximum number of iterations:  150
     Full symmetry point group: C s 
     Computational point group: C s 
        Initial density matrix: MOREAD                 
     SCF convergence tolerance: 10**(- 8)
  DIIS convergence acceleration:  ON
          Latest start for DIIS:   8
                     DIIS order:   6

  Memory information:     546072 words required.
  Fock matrices are constructed from AO integral file.
 @GETMEM-I,  Allocated       4 MB of main memory.
  Initialization and symmetry analysis required      0.002 seconds.

  @INITGES-I, Occupancies from core Hamiltonian:

          Alpha population by irrep:   9    2
           Beta population by irrep:   9    2


 total no. of electrons in initial guess :  0.000000000000000E+000
  --------------------------------------------------------------------
  Iteration         Total Energy            Largest Density Difference
  --------------------------------------------------------------------
       0            60.569157405920464              0.0000000000D+00
   current occupation vector 
     9  2
     9  2
       1          -141.668266649760113              0.1188375291D+02
   current occupation vector 
     9  2
     9  2
       2          -143.113301007958484              0.6032223316D+02
   current occupation vector 
     9  2
     9  2
       3          -153.027734537529653              0.6026349344D+02
   current occupation vector 
     9  2
     9  2
       4          -149.371429200682769              0.1154262308D+02
   current occupation vector 
     9  2
     9  2
       5          -141.849351139088242              0.1137330382D+02
   current occupation vector 
     9  2
     9  2
       6          -143.120147146698287              0.7461508586D+01
   current occupation vector 
     9  2
     9  2
       7          -132.384117664908388              0.8795435378D+01
   current occupation vector 
     9  2
     9  2
       8          -138.319683165099747              0.8795662627D+01
   current occupation vector 
     9  2
     9  2
       9          -160.189858951697175              0.7355570512D+01
   current occupation vector 
     9  2
     9  2
      10          -163.854146387258368              0.8598759990D+00
   current occupation vector 
     9  2
     9  2
      11          -167.245357114172776              0.1696476583D+01
   current occupation vector 
     9  2
     9  2
      12          -167.612470431367967              0.7512127259D+00
   current occupation vector 
     9  2
     9  2
      13          -167.655740074458350              0.2434660855D+00
   current occupation vector 
     9  2
     9  2
      14          -167.664057033195149              0.7516785955D-01
   current occupation vector 
     9  2
     9  2
      15          -167.665322839383180              0.3701120525D-01
   current occupation vector 
     9  2
     9  2
      16          -167.665530426215724              0.2058126988D-01
   current occupation vector 
     9  2
     9  2
      17          -167.665587599350459              0.1122619128D-01
   current occupation vector 
     9  2
     9  2
      18          -167.665600389124194              0.5792706528D-02
   current occupation vector 
     9  2
     9  2
      19          -167.665602460632726              0.1555674908D-02
   current occupation vector 
     9  2
     9  2
      20          -167.665603223730415              0.1232427782D-02
   current occupation vector 
     9  2
     9  2
      21          -167.665603368592031              0.4863169459D-03
   current occupation vector 
     9  2
     9  2
      22          -167.665603406448298              0.3077635975D-03
   current occupation vector 
     9  2
     9  2
      23          -167.665603414535866              0.1558844422D-03
   current occupation vector 
     9  2
     9  2
      24          -167.665603415094694              0.3894082508D-04
   current occupation vector 
     9  2
     9  2
      25          -167.665603415134456              0.6617314505D-05
   current occupation vector 
     9  2
     9  2
      26          -167.665603415141533              0.3910908196D-05
   current occupation vector 
     9  2
     9  2
      27          -167.665603415141419              0.1705472272D-05
   current occupation vector 
     9  2
     9  2
      28          -167.665603415143551              0.7413027951D-06
   current occupation vector 
     9  2
     9  2
      29          -167.665603415143437              0.4069426665D-06
   current occupation vector 
     9  2
     9  2
      30          -167.665603415142073              0.2391224927D-06
   current occupation vector 
     9  2
     9  2
      31          -167.665603415142783              0.8654183969D-07
   current occupation vector 
     9  2
     9  2
      32          -167.665603415142868              0.5103228107D-07
   current occupation vector 
     9  2
     9  2
      33          -167.665603415143380              0.3736551402D-07
   current occupation vector 
     9  2
     9  2

  SCF has converged.

 Density matrix saved to file den.dat
 total electron number:   22.0000000000001     
     E(SCF)=      -167.665603415144091              0.4127080677D-08

  Eigenvector printing suppressed.

 @PUTMOS-I, Writing converged MOs to NEWMOS. 
 @PUTMOS-I, Symmetry   1 Full Blocks 17 Partial Blocksize   2
 @PUTMOS-I, Symmetry   2 Full Blocks  8 Partial Blocksize   2
 @PUTFOCK-I, Writing converged Fock matrix to NEWFOCK. 
 @PUTFOCK-I, Symmetry   1 Full Blocks 17 Partial Blocksize   2
 @PUTFOCK-I, Symmetry   2 Full Blocks  8 Partial Blocksize   2


 
  ORBITAL EIGENVALUES (ALPHA)  (1H = 27.2113834 eV)

       MO #        E(hartree)               E(eV)           FULLSYM    COMPSYM
       ----   --------------------   --------------------   -------   ---------
    1     1         -20.6033746135        -560.6463259428     A'        A'  (1)
    2     2         -15.6667099099        -426.3128499736     A'        A'  (1)
    3     3         -11.3900533096        -309.9391075530     A'        A'  (1)
    4     4          -1.4575146446         -39.6609898064     A'        A'  (1)
    5     5          -1.1512251620         -31.3264292625     A'        A'  (1)
    6     6          -0.8550440038         -23.2669302107     A'        A'  (1)
    7     7          -0.6758892436         -18.3918813436     A'        A'  (1)
    8    71          -0.6358383093         -17.3020400153     A''       A'' (2)
    9     8          -0.5976276930         -16.2622762847     A'        A'  (1)
   10     9          -0.4852261821         -13.2036756768     A'        A'  (1)
   11    72          -0.4279809219         -11.6459529528     A''       A'' (2)
  +++++++++++++++++++++++++++++++++++++++++++++++++++++++++++++++++++++++++++++
   12    10           0.0761424015           2.0719400812     A'        A'  (1)
   13    73           0.1232987689           3.3551300746     A''       A'' (2)
   14    11           0.1373426907           3.7372846141     A'        A'  (1)
   15    12           0.2565659439           6.9815142682     A'        A'  (1)
   16    13           0.2855739890           7.7708633046     A'        A'  (1)
   17    74           0.4126571588          11.2289721619     A''       A'' (2)
   18    14           0.4861125521          13.2277950306     A'        A'  (1)
   19    15           0.5413896282          14.7319607411     A'        A'  (1)
   20    16           0.5606042869          15.2548181868     A'        A'  (1)
   21    17           0.5803310016          15.7916093830     A'        A'  (1)
   22    75           0.6790865817          18.4788853351     A''       A'' (2)
   23    18           0.6863487692          18.6764995039     A'        A'  (1)
   24    19           0.7045966079          19.1730484401     A'        A'  (1)
   25    20           0.7727064582          21.0264116907     A'        A'  (1)
   26    76           0.8132890204          22.1307193490     A''       A'' (2)
   27    77           0.8748836910          23.8067955462     A''       A'' (2)
   28    21           0.9165470899          24.9405142669     A'        A'  (1)
   29    78           0.9269366353          25.2232281693     A''       A'' (2)
   30    22           1.0048803494          27.3441844579     A'        A'  (1)
   31    23           1.1184447338          30.4344284629     A'        A'  (1)
   32    79           1.1271298530          30.6707625713     A''       A'' (2)
   33    24           1.1744449701          31.9582723641     A'        A'  (1)
   34    25           1.2998232883          35.3699898510     A'        A'  (1)
   35    26           1.3793316826          37.5335232505     A'        A'  (1)
   36    80           1.4737923834          40.1039295961     A''       A'' (2)
   37    27           1.5068047642          41.0022421480     A'        A'  (1)
   38    28           1.6093270900          43.7920164626     A'        A'  (1)
   39    29           1.7298230265          47.0708775892     A'        A'  (1)
   40    81           1.7628302691          47.9690503220     A''       A'' (2)
   41    30           1.8193813579          49.5078836817     A'        A'  (1)
   42    82           1.9054264120          51.8492886379     A''       A'' (2)
   43    31           1.9109520522          51.9996489523     A'        A'  (1)
   44    83           2.1001649684          57.1483941586     A''       A'' (2)
   45    32           2.1074411214          57.3463883464     A'        A'  (1)
   46    33           2.3053167327          62.7308574710     A'        A'  (1)
   47    84           2.3707895339          64.5124629675     A''       A'' (2)
   48    34           2.3747376756          64.6198973641     A'        A'  (1)
   49    35           2.6235037234          71.3891656687     A'        A'  (1)
   50    36           2.7544248568          74.9517108246     A'        A'  (1)
   51    37           2.8255433102          76.8869423273     A'        A'  (1)
   52    85           2.9955869076          81.5140638499     A''       A'' (2)
   53    38           3.0983128214          84.3093780756     A'        A'  (1)
   54    86           3.1122923028          84.6897791045     A''       A'' (2)
   55    87           3.1587896255          85.9550355807     A''       A'' (2)
   56    39           3.1920018604          86.8587864367     A'        A'  (1)
   57    88           3.2195517276          87.6084564352     A''       A'' (2)
   58    40           3.2486110798          88.3992016113     A'        A'  (1)
   59    89           3.3582136652          91.3816395831     A''       A'' (2)
   60    41           3.3612371274          91.4639121721     A'        A'  (1)
   61    42           3.4579696091          94.0961368199     A'        A'  (1)
   62    43           3.5528863780          96.6789534083     A'        A'  (1)
   63    90           3.5671690635          97.0676050402     A''       A'' (2)
   64    44           3.8116251185         103.7195924768     A'        A'  (1)
   65    45           3.8486591545         104.7273398297     A'        A'  (1)
   66    91           3.8943962591         105.9719097192     A''       A'' (2)
   67    46           3.9675831534         107.9634263591     A'        A'  (1)
   68    47           4.0630522379         110.5612722206     A'        A'  (1)
   69    92           4.1132479802         111.9271678083     A''       A'' (2)
   70    93           4.2537058854         115.7492217187     A''       A'' (2)
   71    48           4.2847090622         116.5928610487     A'        A'  (1)
   72    49           4.3441547616         118.2104607668     A'        A'  (1)
   73    94           4.4348293039         120.6778405015     A''       A'' (2)
   74    95           4.5486511877         123.7750914204     A''       A'' (2)
   75    50           4.5789897066         124.6006444898     A'        A'  (1)
   76    51           4.6370903721         126.1816439746     A'        A'  (1)
   77    52           4.7965949596         130.5219844595     A'        A'  (1)
   78    96           4.9138084797         133.7115264966     A''       A'' (2)
   79    53           4.9657279696         135.1243276405     A'        A'  (1)
   80    97           5.1132939041         139.1398008614     A''       A'' (2)
   81    54           5.1416178689         139.9105351269     A'        A'  (1)
   82    55           5.2835202634         143.7718955883     A'        A'  (1)
   83    98           5.2856865852         143.8308442016     A''       A'' (2)
   84    56           5.3344096293         145.1566656369     A'        A'  (1)
   85    57           5.3850167958         146.5337566465     A'        A'  (1)
   86    58           5.6400216631         153.4727918580     A'        A'  (1)
   87    99           5.6512917227         153.7794657711     A''       A'' (2)
   88   100           5.7564109971         156.6399066511     A''       A'' (2)
   89    59           5.7818009206         157.3308015938     A'        A'  (1)
   90    60           5.8506963967         159.2055428088     A'        A'  (1)
   91    61           6.0518201701         164.6783989153     A'        A'  (1)
   92   101           6.1237615585         166.6360236198     A''       A'' (2)
   93    62           6.3925629523         173.9504814038     A'        A'  (1)
   94   102           6.4027982810         174.2289988565     A''       A'' (2)
   95    63           6.5528418646         178.3118923379     A'        A'  (1)
   96   103           6.8394410800         186.1106534707     A''       A'' (2)
   97    64           6.9412380817         188.8806907108     A'        A'  (1)
   98    65           6.9904033117         190.2185446340     A'        A'  (1)
   99   104           7.2579569453         197.4990491381     A''       A'' (2)
  100    66           7.4621967393         203.0566964800     A'        A'  (1)
  101    67           7.5195740851         204.6180134341     A'        A'  (1)
  102    68           9.3905549690         255.5299916010     A'        A'  (1)
  103    69          11.2059178088         304.9285258438     A'        A'  (1)
  104    70          13.6440432819         371.2732928695     A'        A'  (1)


  VSCF finished.

 @CHECKOUT-I, Total execution time (CPU/WALL):        3.05/       4.81 seconds.
--executable xvscf finished with status     0 in        4.92 seconds (walltime).
 --invoking executable--
/home/orgChemistry/bin/cfour_v21/bin/xvtran
 @GETMEM-I,  Allocated    4768 MB of main memory.
  Partial RHF integral transformation
  Frozen-core orbitals requested within analytic derivative calculation
  Transformation of IIII integrals :
  1 pass through the AO integral file was required.
     3208898 AO integrals were read.
     1337623 MO integrals were written to HF2.
  Transformation of IIJJ integrals :
  1 pass through the AO integral file was required.
     1451192 AO integrals were read.
      480127 MO integrals were written to HF2.
  Transformation of IJIJ integrals :
  1 pass through the AO integral file was required.
     2785280 AO integrals were read.
      927262 MO integrals were written to HF2.
  Summary of active molecular orbitals: 
------------------------------------------------------------------------
 
  Index      Eigenvalue    Symmetry    Index      Eigenvalue    Symmetry
------------------------------------------------------------------------
     1       -20.6033746        1        53         4.6370904        1
     2       -15.6667099        1        54         4.7965950        1
     3       -11.3900533        1        55         4.9657280        1
     4        -1.4575146        1        56         5.1416179        1
     5        -1.1512252        1        57         5.2835203        1
     6        -0.8550440        1        58         5.3344096        1
     7        -0.6758892        1        59         5.3850168        1
     8        -0.5976277        1        60         5.6400217        1
     9        -0.4852262        1        61         5.7818009        1
    10        -0.6358383        2        62         5.8506964        1
    11        -0.4279809        2        63         6.0518202        1
    12         0.0761424        1        64         6.3925630        1
    13         0.1373427        1        65         6.5528419        1
    14         0.2565659        1        66         6.9412381        1
    15         0.2855740        1        67         6.9904033        1
    16         0.4861126        1        68         7.4621967        1
    17         0.5413896        1        69         7.5195741        1
    18         0.5606043        1        70         9.3905550        1
    19         0.5803310        1        71        11.2059178        1
    20         0.6863488        1        72        13.6440433        1
    21         0.7045966        1        73         0.1232988        2
    22         0.7727065        1        74         0.4126572        2
    23         0.9165471        1        75         0.6790866        2
    24         1.0048803        1        76         0.8132890        2
    25         1.1184447        1        77         0.8748837        2
    26         1.1744450        1        78         0.9269366        2
    27         1.2998233        1        79         1.1271299        2
    28         1.3793317        1        80         1.4737924        2
    29         1.5068048        1        81         1.7628303        2
    30         1.6093271        1        82         1.9054264        2
    31         1.7298230        1        83         2.1001650        2
    32         1.8193814        1        84         2.3707895        2
    33         1.9109521        1        85         2.9955869        2
    34         2.1074411        1        86         3.1122923        2
    35         2.3053167        1        87         3.1587896        2
    36         2.3747377        1        88         3.2195517        2
    37         2.6235037        1        89         3.3582137        2
    38         2.7544249        1        90         3.5671691        2
    39         2.8255433        1        91         3.8943963        2
    40         3.0983128        1        92         4.1132480        2
    41         3.1920019        1        93         4.2537059        2
    42         3.2486111        1        94         4.4348293        2
    43         3.3612371        1        95         4.5486512        2
    44         3.4579696        1        96         4.9138085        2
    45         3.5528864        1        97         5.1132939        2
    46         3.8116251        1        98         5.2856866        2
    47         3.8486592        1        99         5.6512917        2
    48         3.9675832        1       100         5.7564110        2
    49         4.0630522        1       101         6.1237616        2
    50         4.2847091        1       102         6.4027983        2
    51         4.3441548        1       103         6.8394411        2
    52         4.5789897        1       104         7.2579569        2
------------------------------------------------------------------------
  -20.6033746135378       -15.6667099098523       -11.3900533095660     
  -1.45751464463805       -1.15122516198400      -0.855044003780480     
 -0.675889243602036      -0.597627692999183      -0.485226182100215     
 -0.635838309320391      -0.427980921866152       7.614240153453759E-002
  0.137342690710332       0.256565943948411       0.285573989031776     
  0.486112552095001       0.541389628175734       0.560604286908492     
  0.580331001584586       0.686348769165135       0.704596607907190     
  0.772706458235934       0.916547089880722        1.00488034937402     
   1.11844473378975        1.17444497011936        1.29982328832891     
   1.37933168258107        1.50680476421319        1.60932709002394     
   1.72982302653488        1.81938135793765        1.91095205223374     
   2.10744112136419        2.30531673266484        2.37473767555954     
   2.62350372339887        2.75442485679144        2.82554331020482     
   3.09831282137687        3.19200186039364        3.24861107984985     
   3.36123712740310        3.45796960914061        3.55288637799653     
   3.81162511850672        3.84865915452684        3.96758315342133     
   4.06305223793184        4.28470906219142        4.34415476159986     
   4.57898970655927        4.63709037206096        4.79659495957442     
   4.96572796958570        5.14161786889715        5.28352026337365     
   5.33440962934945        5.38501679582143        5.64002166306559     
   5.78180092063302        5.85069639674265        6.05182017005652     
   6.39256295230399        6.55284186462434        6.94123808166407     
   6.99040331165368        7.46219673932360        7.51957408509132     
   9.39055496902957        11.2059178087886        13.6440432818811     
  0.123298768947050       0.412657158837149       0.679086581652552     
  0.813289020396999       0.874883691000668       0.926936635251665     
   1.12712985298986        1.47379238337688        1.76283026911429     
   1.90542641201667        2.10016496840673        2.37078953389278     
   2.99558690757099        3.11229230280584        3.15878962554839     
   3.21955172757675        3.35821366520925        3.56716906352572     
   3.89439625914611        4.11324798019445        4.25370588540795     
   4.43482930388315        4.54865118766324        4.91380847974899     
   5.11329390410189        5.28568658518132        5.65129172267986     
   5.75641099713701        6.12376155854572        6.40279828097596     
   6.83944108004140        7.25795694525919     
 @CHECKOUT-I, Total execution time (CPU/WALL):        0.64/       0.83 seconds.
--executable xvtran finished with status     0 in        0.93 seconds (walltime).
 --invoking executable--
/home/orgChemistry/bin/cfour_v21/bin/xintprc
 @GETMEM-I,  Allocated    4768 MB of main memory.
  @GMOIAA-I, Processing MO integrals for spin case AA.
  @GMOIAA-I, Generation of integral list completed.
                      TYPE                NUMBER
                      ----               --------
                      PPPP                     0
                      PPPH               2283167
                      PPHH                272446
                      PHPH                151248
                      PHHH                 36804
                      HHHH                  1347

                     TOTAL               2745012

  @FORMT2-I, Second-order MP correlation energies:
            ------------------------------------------------
            E(SCF)                  =   -167.665603415144 a.u.
            E2(AA)                  =     -0.075694690741 a.u.
            E2(AB)                  =     -0.439766758750 a.u.
            E2(TOT)                 =     -0.591156140232 a.u.
            Total MP2 energy        =   -168.256759555376 a.u.
            ------------------------------------------------
   Largest T2 amplitudes for spin case AB:
       _       _                 _       _                 _       _
   i   j   a   b             i   j   a   b             i   j   a   b
-----------------------------------------------------------------------------
[  9   9  12  12]-0.08881 [ 11  11  73  73]-0.05471 [ 11   9  73  12] 0.05052
[  9  11  12  73] 0.05052 [ 10  10  73  73]-0.04138 [  9   9  14  12] 0.03921
[  9   9  12  14] 0.03921 [  9   7  12  12]-0.03168 [  7   9  12  12]-0.03168
[  7   7  12  12]-0.02582 [ 11   9  73  14]-0.02502 [  9  11  14  73]-0.02502
[ 11   9  76  12] 0.02328 [  9  11  12  76] 0.02328 [  6   6  73  73]-0.02282
-----------------------------------------------------------------------------
   Norm of T2AB vector (   543869 symmetry allowed elements):  0.3708608753.
-----------------------------------------------------------------------------
 @CHECKOUT-I, Total execution time (CPU/WALL):        0.22/       0.60 seconds.
--executable xintprc finished with status     0 in        0.70 seconds (walltime).
  calling xecc 
 --invoking executable--
/home/orgChemistry/bin/cfour_v21/bin/xecc
 @GETMEM-I,  Allocated    4768 MB of main memory.
 CCSD(T) energy will be calculated.
 AO based algorithm is used. 
   Frozen core orbitals in analytic derivative calculation
 Largest T2 amplitudes for spin case AB:
        _       _                 _       _                 _       _
    i   j   a   b             i   j   a   b             i   j   a   b
 -----------------------------------------------------------------------------
 [  9   9  12  12]-0.08881 [ 11  11  73  73]-0.05471 [ 11   9  73  12] 0.05052
 [  9  11  12  73] 0.05052 [ 10  10  73  73]-0.04138 [  9   9  14  12] 0.03921
 [  9   9  12  14] 0.03921 [  9   7  12  12]-0.03168 [  7   9  12  12]-0.03168
 [  7   7  12  12]-0.02582 [ 11   9  73  14]-0.02502 [  9  11  14  73]-0.02502
 [ 11   9  76  12] 0.02328 [  9  11  12  76] 0.02328 [  6   6  73  73]-0.02282
 -----------------------------------------------------------------------------
 Norm of T2AB vector (   543869 symmetry allowed elements):  0.3708608753.
 -----------------------------------------------------------------------------
 The total correlation energy is -0.591156140232 a.u.
 Resorts of amplitudes and integrals (CPU/WALL):       0.01/       0.03 seconds.
 Starting iterative solution of the CC equations.
 The DIIS procedure is used to accelerate convergence.
 5 expansion vectors are used in the DIIS extrapolation.
 Convergence criterium is 10**(-10).
 Maximum number of iterations is 100.
 >>>>>>>>>>>>>>>>>>>>>>>>>>>>>>>>>>>>>>>>>>>>>>>>>>>>>>>>>>>>>>>>>>>>>>>>>>>>>>>
 Iteration Nr.   1 started:
 Generation of Intermediates required (CPU/WALL):      0.17/       0.30 seconds.
 Transformation of t(ab,ij) amplitudes required    0.0 seconds.
 Contraction of t(mu nu,ij) with AO integrals required    0.9 seconds.
 Backtransformation of t(mu nu,ij) increments required    0.0 seconds.
 Construction of Hbar required (CPU/WALL):             1.02/       1.19 seconds.
   Frozen core orbitals in analytic derivative calculation
 Amplitude changes are:
 -------------------------------------------------------------------
              Spin      RMS          Max.      Max. change for
  Amplitude   Case     Change       Change       i    j    a    b
 -------------------------------------------------------------------
     T1        AA    0.0001633817 0.0643136098    9        12
     T2        AB    0.0000001275 0.0138343132    9    9   12   12
 -------------------------------------------------------------------
 The total correlation energy is -0.559954092803 a.u.
 Convergence information after     1 iterations: 
 Largest element of residual vector :  0.64313610E-01.
 Largest element of DIIS residual   :  0.64313610E-01.
 Iteration Nr.   1 required (CPU/WALL):                1.24/       1.60 seconds.
 >>>>>>>>>>>>>>>>>>>>>>>>>>>>>>>>>>>>>>>>>>>>>>>>>>>>>>>>>>>>>>>>>>>>>>>>>>>>>>>
 Iteration Nr.   2 started:
 Generation of Intermediates required (CPU/WALL):      0.17/       0.29 seconds.
 Transformation of t(ab,ij) amplitudes required    0.0 seconds.
 Contraction of t(mu nu,ij) with AO integrals required    0.9 seconds.
 Backtransformation of t(mu nu,ij) increments required    0.0 seconds.
 Construction of Hbar required (CPU/WALL):             1.02/       1.19 seconds.
   Frozen core orbitals in analytic derivative calculation
 Amplitude changes are:
 -------------------------------------------------------------------
              Spin      RMS          Max.      Max. change for
  Amplitude   Case     Change       Change       i    j    a    b
 -------------------------------------------------------------------
     T1        AA    0.0000528552 0.0203364876   11        73
     T2        AB    0.0000001084-0.0278961895    9    9   12   12
 -------------------------------------------------------------------
 The total correlation energy is -0.595624334710 a.u.
 Convergence information after     2 iterations: 
 Largest element of residual vector : -0.27896189E-01.
 Largest element of DIIS residual   : -0.14829349E-01.
 Iteration Nr.   2 required (CPU/WALL):                1.25/       1.61 seconds.
 >>>>>>>>>>>>>>>>>>>>>>>>>>>>>>>>>>>>>>>>>>>>>>>>>>>>>>>>>>>>>>>>>>>>>>>>>>>>>>>
 Iteration Nr.   3 started:
 Generation of Intermediates required (CPU/WALL):      0.17/       0.29 seconds.
 Transformation of t(ab,ij) amplitudes required    0.0 seconds.
 Contraction of t(mu nu,ij) with AO integrals required    0.9 seconds.
 Backtransformation of t(mu nu,ij) increments required    0.0 seconds.
 Construction of Hbar required (CPU/WALL):             1.02/       1.19 seconds.
   Frozen core orbitals in analytic derivative calculation
 Amplitude changes are:
 -------------------------------------------------------------------
              Spin      RMS          Max.      Max. change for
  Amplitude   Case     Change       Change       i    j    a    b
 -------------------------------------------------------------------
     T1        AA    0.0000372113 0.0182251084    9        12
     T2        AB    0.0000000268-0.0058209376    9    9   12   12
 -------------------------------------------------------------------
 The total correlation energy is -0.588649708940 a.u.
 Convergence information after     3 iterations: 
 Largest element of residual vector :  0.18225108E-01.
 Largest element of DIIS residual   :  0.13043264E-01.
 Iteration Nr.   3 required (CPU/WALL):                1.27/       1.63 seconds.
 >>>>>>>>>>>>>>>>>>>>>>>>>>>>>>>>>>>>>>>>>>>>>>>>>>>>>>>>>>>>>>>>>>>>>>>>>>>>>>>
 Iteration Nr.   4 started:
 Generation of Intermediates required (CPU/WALL):      0.17/       0.29 seconds.
 Transformation of t(ab,ij) amplitudes required    0.0 seconds.
 Contraction of t(mu nu,ij) with AO integrals required    0.9 seconds.
 Backtransformation of t(mu nu,ij) increments required    0.0 seconds.
 Construction of Hbar required (CPU/WALL):             1.02/       1.19 seconds.
   Frozen core orbitals in analytic derivative calculation
 Amplitude changes are:
 -------------------------------------------------------------------
              Spin      RMS          Max.      Max. change for
  Amplitude   Case     Change       Change       i    j    a    b
 -------------------------------------------------------------------
     T1        AA    0.0000168553 0.0066246492   11        73
     T2        AB    0.0000000122-0.0032796166    9    9   12   12
 -------------------------------------------------------------------
 The total correlation energy is -0.592042980617 a.u.
 Convergence information after     4 iterations: 
 Largest element of residual vector :  0.66246492E-02.
 Largest element of DIIS residual   :  0.49654817E-02.
 Iteration Nr.   4 required (CPU/WALL):                1.28/       1.66 seconds.
 >>>>>>>>>>>>>>>>>>>>>>>>>>>>>>>>>>>>>>>>>>>>>>>>>>>>>>>>>>>>>>>>>>>>>>>>>>>>>>>
 Iteration Nr.   5 started:
 Generation of Intermediates required (CPU/WALL):      0.17/       0.29 seconds.
 Transformation of t(ab,ij) amplitudes required    0.0 seconds.
 Contraction of t(mu nu,ij) with AO integrals required    0.9 seconds.
 Backtransformation of t(mu nu,ij) increments required    0.0 seconds.
 Construction of Hbar required (CPU/WALL):             1.01/       1.18 seconds.
   Frozen core orbitals in analytic derivative calculation
 Amplitude changes are:
 -------------------------------------------------------------------
              Spin      RMS          Max.      Max. change for
  Amplitude   Case     Change       Change       i    j    a    b
 -------------------------------------------------------------------
     T1        AA    0.0000077251 0.0037823925    9        12
     T2        AB    0.0000000071-0.0017108963    9    9   12   12
 -------------------------------------------------------------------
 The total correlation energy is -0.593950970514 a.u.
 Convergence information after     5 iterations: 
 Largest element of residual vector :  0.37823925E-02.
 Largest element of DIIS residual   :  0.16466449E-02.
 Iteration Nr.   5 required (CPU/WALL):                1.29/       1.68 seconds.
 Largest T1 amplitudes for spin case AA:
    i       a                 i       a                 i       a    
 -----------------------------------------------------------------------------
 [  9      12    ] 0.09669 [ 10      73    ] 0.06979 [  9      14    ]-0.02613
 [ 11      73    ] 0.02537 [ 10      74    ] 0.02128 [  9      28    ]-0.01727
 [  6      12    ]-0.01579 [  5      12    ] 0.01561 [  9      22    ]-0.01306
 [  9      20    ] 0.01262 [  9      21    ]-0.01222 [ 11      74    ] 0.01217
 [  9      16    ] 0.01189 [ 10      75    ] 0.00833 [  8      22    ] 0.00772
 -----------------------------------------------------------------------------
 Norm of T1AA vector (      613 symmetry allowed elements):  0.1391312881.
 -----------------------------------------------------------------------------
 Largest T2 amplitudes for spin case AB:
        _       _                 _       _                 _       _
    i   j   a   b             i   j   a   b             i   j   a   b
 -----------------------------------------------------------------------------
 [  9   9  12  12]-0.11527 [ 11  11  73  73]-0.06080 [ 11   9  73  12] 0.05336
 [  9  11  12  73] 0.05336 [ 10  10  73  73]-0.04623 [  9   9  14  12] 0.04619
 [  9   9  12  14] 0.04619 [ 11  11  12  12]-0.03768 [  9   7  12  12]-0.03477
 [  7   9  12  12]-0.03477 [  8   8  12  12]-0.02831 [  7   7  12  12]-0.02767
 [ 11  10  73  73]-0.02671 [ 10  11  73  73]-0.02671 [  6   6  73  73]-0.02564
 -----------------------------------------------------------------------------
 Norm of T2AB vector (   543869 symmetry allowed elements):  0.4075859009.
 -----------------------------------------------------------------------------
 >>>>>>>>>>>>>>>>>>>>>>>>>>>>>>>>>>>>>>>>>>>>>>>>>>>>>>>>>>>>>>>>>>>>>>>>>>>>>>>
 Iteration Nr.   6 started:
 Generation of Intermediates required (CPU/WALL):      0.17/       0.29 seconds.
 Transformation of t(ab,ij) amplitudes required    0.0 seconds.
 Contraction of t(mu nu,ij) with AO integrals required    0.9 seconds.
 Backtransformation of t(mu nu,ij) increments required    0.0 seconds.
 Construction of Hbar required (CPU/WALL):             1.01/       1.18 seconds.
   Frozen core orbitals in analytic derivative calculation
 Amplitude changes are:
 -------------------------------------------------------------------
              Spin      RMS          Max.      Max. change for
  Amplitude   Case     Change       Change       i    j    a    b
 -------------------------------------------------------------------
     T1        AA    0.0000039071 0.0017208617   11        73
     T2        AB    0.0000000022-0.0002604210    9    9   12   12
 -------------------------------------------------------------------
 The total correlation energy is -0.594288788152 a.u.
 Convergence information after     6 iterations: 
 Largest element of residual vector :  0.17208617E-02.
 Largest element of DIIS residual   :  0.10512411E-02.
 Iteration Nr.   6 required (CPU/WALL):                1.29/       1.69 seconds.
 >>>>>>>>>>>>>>>>>>>>>>>>>>>>>>>>>>>>>>>>>>>>>>>>>>>>>>>>>>>>>>>>>>>>>>>>>>>>>>>
 Iteration Nr.   7 started:
 Generation of Intermediates required (CPU/WALL):      0.16/       0.29 seconds.
 Transformation of t(ab,ij) amplitudes required    0.0 seconds.
 Contraction of t(mu nu,ij) with AO integrals required    0.9 seconds.
 Backtransformation of t(mu nu,ij) increments required    0.0 seconds.
 Construction of Hbar required (CPU/WALL):             1.00/       1.17 seconds.
   Frozen core orbitals in analytic derivative calculation
 Amplitude changes are:
 -------------------------------------------------------------------
              Spin      RMS          Max.      Max. change for
  Amplitude   Case     Change       Change       i    j    a    b
 -------------------------------------------------------------------
     T1        AA    0.0000016703 0.0007038094   11        73
     T2        AB    0.0000000014 0.0001734071   11   11   12   12
 -------------------------------------------------------------------
 The total correlation energy is -0.594382502459 a.u.
 Convergence information after     7 iterations: 
 Largest element of residual vector :  0.70380937E-03.
 Largest element of DIIS residual   : -0.30994033E-03.
 Iteration Nr.   7 required (CPU/WALL):                1.28/       1.67 seconds.
 >>>>>>>>>>>>>>>>>>>>>>>>>>>>>>>>>>>>>>>>>>>>>>>>>>>>>>>>>>>>>>>>>>>>>>>>>>>>>>>
 Iteration Nr.   8 started:
 Generation of Intermediates required (CPU/WALL):      0.17/       0.29 seconds.
 Transformation of t(ab,ij) amplitudes required    0.0 seconds.
 Contraction of t(mu nu,ij) with AO integrals required    0.9 seconds.
 Backtransformation of t(mu nu,ij) increments required    0.0 seconds.
 Construction of Hbar required (CPU/WALL):             1.01/       1.18 seconds.
   Frozen core orbitals in analytic derivative calculation
 Amplitude changes are:
 -------------------------------------------------------------------
              Spin      RMS          Max.      Max. change for
  Amplitude   Case     Change       Change       i    j    a    b
 -------------------------------------------------------------------
     T1        AA    0.0000009349 0.0004608103   11        73
     T2        AB    0.0000000006 0.0001012658   11   11   12   12
 -------------------------------------------------------------------
 The total correlation energy is -0.594419312022 a.u.
 Convergence information after     8 iterations: 
 Largest element of residual vector :  0.46081026E-03.
 Largest element of DIIS residual   : -0.14297325E-03.
 Iteration Nr.   8 required (CPU/WALL):                1.28/       1.68 seconds.
 >>>>>>>>>>>>>>>>>>>>>>>>>>>>>>>>>>>>>>>>>>>>>>>>>>>>>>>>>>>>>>>>>>>>>>>>>>>>>>>
 Iteration Nr.   9 started:
 Generation of Intermediates required (CPU/WALL):      0.17/       0.29 seconds.
 Transformation of t(ab,ij) amplitudes required    0.0 seconds.
 Contraction of t(mu nu,ij) with AO integrals required    0.9 seconds.
 Backtransformation of t(mu nu,ij) increments required    0.0 seconds.
 Construction of Hbar required (CPU/WALL):             1.01/       1.25 seconds.
   Frozen core orbitals in analytic derivative calculation
 Amplitude changes are:
 -------------------------------------------------------------------
              Spin      RMS          Max.      Max. change for
  Amplitude   Case     Change       Change       i    j    a    b
 -------------------------------------------------------------------
     T1        AA    0.0000002447 0.0001186690   11        73
     T2        AB    0.0000000003 0.0000627955   11   11   12   12
 -------------------------------------------------------------------
 The total correlation energy is -0.594424073316 a.u.
 Convergence information after     9 iterations: 
 Largest element of residual vector :  0.11866896E-03.
 Largest element of DIIS residual   :  0.58165491E-04.
 Iteration Nr.   9 required (CPU/WALL):                1.29/       1.74 seconds.
 >>>>>>>>>>>>>>>>>>>>>>>>>>>>>>>>>>>>>>>>>>>>>>>>>>>>>>>>>>>>>>>>>>>>>>>>>>>>>>>
 Iteration Nr.  10 started:
 Generation of Intermediates required (CPU/WALL):      0.16/       0.29 seconds.
 Transformation of t(ab,ij) amplitudes required    0.0 seconds.
 Contraction of t(mu nu,ij) with AO integrals required    0.9 seconds.
 Backtransformation of t(mu nu,ij) increments required    0.0 seconds.
 Construction of Hbar required (CPU/WALL):             1.01/       1.18 seconds.
   Frozen core orbitals in analytic derivative calculation
 Amplitude changes are:
 -------------------------------------------------------------------
              Spin      RMS          Max.      Max. change for
  Amplitude   Case     Change       Change       i    j    a    b
 -------------------------------------------------------------------
     T1        AA    0.0000001545 0.0000800163   11        73
     T2        AB    0.0000000002 0.0000273344   11   11   12   12
 -------------------------------------------------------------------
 The total correlation energy is -0.594447647782 a.u.
 Convergence information after    10 iterations: 
 Largest element of residual vector :  0.80016267E-04.
 Largest element of DIIS residual   :  0.31132487E-04.
 Iteration Nr.  10 required (CPU/WALL):                1.29/       1.68 seconds.
 Largest T1 amplitudes for spin case AA:
    i       a                 i       a                 i       a    
 -----------------------------------------------------------------------------
 [  9      12    ] 0.10211 [ 10      73    ] 0.06804 [ 11      73    ] 0.03158
 [  9      14    ]-0.02686 [ 10      74    ] 0.02084 [  9      28    ]-0.01719
 [  6      12    ]-0.01607 [  5      12    ] 0.01548 [ 11      74    ] 0.01352
 [  9      22    ]-0.01328 [  9      20    ] 0.01295 [  9      21    ]-0.01240
 [  9      16    ] 0.01206 [ 10      75    ] 0.00812 [  8      22    ] 0.00764
 -----------------------------------------------------------------------------
 Norm of T1AA vector (      613 symmetry allowed elements):  0.1435185836.
 -----------------------------------------------------------------------------
 Largest T2 amplitudes for spin case AB:
        _       _                 _       _                 _       _
    i   j   a   b             i   j   a   b             i   j   a   b
 -----------------------------------------------------------------------------
 [  9   9  12  12]-0.11701 [ 11  11  73  73]-0.06096 [ 11   9  73  12] 0.05329
 [  9  11  12  73] 0.05329 [  9   9  14  12] 0.04666 [  9   9  12  14] 0.04666
 [ 10  10  73  73]-0.04595 [ 11  11  12  12]-0.03735 [  9   7  12  12]-0.03483
 [  7   9  12  12]-0.03483 [  8   8  12  12]-0.02783 [ 11  10  73  73]-0.02777
 [ 10  11  73  73]-0.02777 [  7   7  12  12]-0.02741 [  6   6  73  73]-0.02563
 -----------------------------------------------------------------------------
 Norm of T2AB vector (   543869 symmetry allowed elements):  0.4081099421.
 -----------------------------------------------------------------------------
 >>>>>>>>>>>>>>>>>>>>>>>>>>>>>>>>>>>>>>>>>>>>>>>>>>>>>>>>>>>>>>>>>>>>>>>>>>>>>>>
 Iteration Nr.  11 started:
 Generation of Intermediates required (CPU/WALL):      0.17/       0.29 seconds.
 Transformation of t(ab,ij) amplitudes required    0.0 seconds.
 Contraction of t(mu nu,ij) with AO integrals required    0.9 seconds.
 Backtransformation of t(mu nu,ij) increments required    0.0 seconds.
 Construction of Hbar required (CPU/WALL):             1.01/       1.18 seconds.
   Frozen core orbitals in analytic derivative calculation
 Amplitude changes are:
 -------------------------------------------------------------------
              Spin      RMS          Max.      Max. change for
  Amplitude   Case     Change       Change       i    j    a    b
 -------------------------------------------------------------------
     T1        AA    0.0000000691 0.0000248418   11        73
     T2        AB    0.0000000001 0.0000133070   11   11   12   12
 -------------------------------------------------------------------
 The total correlation energy is -0.594445008075 a.u.
 Convergence information after    11 iterations: 
 Largest element of residual vector :  0.24841780E-04.
 Largest element of DIIS residual   :  0.14481110E-04.
 Iteration Nr.  11 required (CPU/WALL):                1.29/       1.68 seconds.
 >>>>>>>>>>>>>>>>>>>>>>>>>>>>>>>>>>>>>>>>>>>>>>>>>>>>>>>>>>>>>>>>>>>>>>>>>>>>>>>
 Iteration Nr.  12 started:
 Generation of Intermediates required (CPU/WALL):      0.17/       0.29 seconds.
 Transformation of t(ab,ij) amplitudes required    0.0 seconds.
 Contraction of t(mu nu,ij) with AO integrals required    0.9 seconds.
 Backtransformation of t(mu nu,ij) increments required    0.0 seconds.
 Construction of Hbar required (CPU/WALL):             1.01/       1.18 seconds.
   Frozen core orbitals in analytic derivative calculation
 Amplitude changes are:
 -------------------------------------------------------------------
              Spin      RMS          Max.      Max. change for
  Amplitude   Case     Change       Change       i    j    a    b
 -------------------------------------------------------------------
[...]
                             Z-matrix center   1:
  Atomic charge is                      6
       XX =   -0.2622840388  YY =   -0.4179523247  ZZ =    0.6802363635
       XY =   -0.0975811570  XZ =    0.0000000000  YZ =    0.0000000000
                             Z-matrix center   2:
  Atomic charge is                      7
       XX =    1.7339122134  YY =   -0.4374235730  ZZ =   -1.2964886403
       XY =   -1.4797828435  XZ =    0.0000000000  YZ =    0.0000000000
                          In kHz, Mass number  14
                          CHIxx =      8327.42427
                          CHIyy =     -2100.80513
                          CHIzz =     -6226.61914
                          CHIxy =     -7106.92241
                          CHIxz =         0.00000
                          CHIyz =         0.00000
                             Z-matrix center   3:
  Atomic charge is                      8
       XX =    1.8108200189  YY =   -0.1048606915  ZZ =   -1.7059593273
       XY =   -0.4745785917  XZ =    0.0000000000  YZ =    0.0000000000
                             Z-matrix center   4:
  Atomic charge is                      1
       XX =   -0.1449586398  YY =    0.2873155282  ZZ =   -0.1423568884
       XY =   -0.0005678363  XZ =    0.0000000000  YZ =    0.0000000000
                          In kHz, Mass number   2
                          CHIxx =       -97.41208
                          CHIyy =       193.07579
                          CHIzz =       -95.66371
                          CHIxy =        -0.38159
                          CHIxz =         0.00000
                          CHIyz =         0.00000
   Electrostatic potential at atomic centers 
          Z-matrix                             Potential
           center                               [<1/r>]
              1                            -14.5746126107
              2                            -18.2758999892
              3                            -22.3052535437
              4                             -0.9844147856
  @DRVPRP-I, Properties computed from the correlated density matrix follow.
   Components of electric dipole moment 
        X =   -0.0636279032   Y =    1.1651001454   Z =    0.0000000000
   Components of second moment 
       XX =   57.7768187412  YY =   33.6062789187  ZZ =   12.6212568653
       XY =    0.1124208511  XZ =    0.0000000000  YZ =    0.0000000000
   Components of electric quadrupole moment 
       XX =   -1.7319348946  YY =    2.3324592960  ZZ =   -0.6005244014
       XY =   -0.6015247434  XZ =    0.0000000000  YZ =    0.0000000000
   Components of electric octopole moment 
      XXX =   -1.1085717798 YYY =    2.9100878453 ZZZ =    0.0000000000
      XXY =    1.2949633781 XXZ =    0.0000000000 XYY =    0.8882389780
      YYZ =    0.0000000000 XZZ =    0.2203328019 YZZ =   -4.2050512234
      XYZ =    0.0000000000
  Relativistic correction to the energy 
      Darwin =    0.3771608777 p**4   =   -0.4729299178 Total  =   -0.0957690401
   Charge densities at atomic centers 
          Z-matrix                               Charge
           center                               Density
              1                            121.2731586418
              2                            197.8035052126
              3                            299.5347494070
              4                              0.4182914964
   Electric field gradient at atomic centers 
                             Z-matrix center   1:
  Atomic charge is                      6
       XX =   -0.1035714069  YY =   -0.2334579430  ZZ =    0.3370293499
       XY =   -0.1541691225  XZ =    0.0000000000  YZ =    0.0000000000
                             Z-matrix center   2:
  Atomic charge is                      7
       XX =    1.1858917319  YY =   -0.5293462828  ZZ =   -0.6565454491
       XY =   -0.9369535798  XZ =    0.0000000000  YZ =    0.0000000000
                          In kHz, Mass number  14
                          CHIxx =      5695.45766
                          CHIyy =     -2542.28043
                          CHIzz =     -3153.17723
                          CHIxy =     -4499.88755
                          CHIxz =         0.00000
                          CHIyz =         0.00000
                             Z-matrix center   3:
  Atomic charge is                      8
       XX =    1.9640343166  YY =   -0.0247818886  ZZ =   -1.9392524279
       XY =    0.1196098929  XZ =    0.0000000000  YZ =    0.0000000000
                             Z-matrix center   4:
  Atomic charge is                      1
       XX =   -0.1423729469  YY =    0.2945477229  ZZ =   -0.1521747760
       XY =    0.0011046712  XZ =    0.0000000000  YZ =    0.0000000000
                          In kHz, Mass number   2
                          CHIxx =       -95.67450
                          CHIyy =       197.93582
                          CHIzz =      -102.26132
                          CHIxy =         0.74234
                          CHIxz =         0.00000
                          CHIyz =         0.00000
   Electrostatic potential at atomic centers 
          Z-matrix                             Potential
           center                               [<1/r>]
              1                            -14.6424522771
              2                            -18.3319321292
              3                            -22.2877950582
              4                             -1.0075366381
 
  Mulliken population analysis of SCF density.
   Total density is analyzed.
 
  Population analysis by orbitals.
 -------------------------------------------------------
     Z-matrix
      Center          Function          Population
 -------------------------------------------------------
         1                S              1.99872669
         1                S              1.43921788
         1                S             -0.00791002
         1                S             -0.23682837
         1                P              1.03462046
         1                P             -0.10383886
         1                P             -0.16392673
         1                P              1.24597197
         1                P             -0.14888519
         1                P             -0.20713229
         1                P              0.70671986
         1                P             -0.00301092
         1                P             -0.08157114
         1                D              0.00836855
         1                D              0.03317746
         1                D              0.01535356
         1                D              0.02396019
         1                D              0.00905280
         1                D              0.05652938
         1                D              0.00956824
         1                D              0.03590975
         1                D              0.00517415
         1                D              0.02113153
         1                D              0.00295906
         1                D              0.00685776
         1                F              0.00047680
         1                F              0.00449073
         1                F              0.00081050
         1                F              0.00197590
         1                F              0.00650582
         1                F              0.00082795
         1                F              0.00188814
         1                F              0.00139570
         1                F              0.00118703
         1                F              0.00136463
         2                S              1.99815432
         2                S              1.85705578
         2                S             -0.00049650
         2                S             -0.09566609
         2                P              0.65554724
         2                P             -0.01547496
         2                P             -0.02439544
         2                P              1.24319829
         2                P             -0.03603586
         2                P             -0.06576515
         2                P              1.48126514
         2                P             -0.01393977
         2                P              0.00814557
         2                D              0.00129862
         2                D              0.01254096
         2                D              0.00372515
         2                D              0.01205073
         2                D              0.00098171
         2                D              0.00534549
         2                D              0.00143333
         2                D              0.00893591
         2                D              0.00121321
         2                D              0.00980826
         2                D              0.00084700
         2                D              0.00298757
         2                F              0.00046929
         2                F              0.00076633
         2                F              0.00025287
         2                F              0.00085277
         2                F              0.00041440
         2                F              0.00050902
         2                F              0.00019626
         2                F              0.00022279
         2                F              0.00031932
         2                F              0.00026550
         3                S              1.99801857
         3                S              1.86930804
         3                S             -0.00328987
         3                S             -0.03893082
         3                P              1.21392133
         3                P              0.00802710
         3                P              0.00540217
         3                P              1.51554805
         3                P              0.00394261
         3                P             -0.00675017
         3                P              1.72970210
         3                P              0.00150600
         3                P              0.03862208
         3                D              0.00057792
         3                D              0.00660560
         3                D              0.00152539
         3                D              0.01112999
         3                D              0.00042899
         3                D              0.00441744
         3                D              0.00033297
         3                D              0.00386577
         3                D              0.00023995
         3                D              0.00284998
         3                D              0.00036844
         3                D              0.00294669
         3                F              0.00019308
         3                F              0.00052569
         3                F              0.00016045
         3                F              0.00048243
         3                F              0.00021838
         3                F              0.00029491
         3                F              0.00007147
         3                F              0.00002754
         3                F              0.00016792
         3                F              0.00009517
         4                S              1.36934588
         4                S             -0.21485329
         4                S             -0.33013902
         4                P              0.00035444
         4                P              0.00404529
         4                P              0.00857388
         4                P              0.00693446
         4                P              0.00030127
         4                P              0.00338960
         4                D              0.00022762
         4                D              0.00025518
         4                D              0.00001451
         4                D              0.00074201
         4                D             -0.00005093
         4                D              0.00015773
 -------------------------------------------------------
  Population analysis by atoms (atomic charges).
 -------------------------------------------------------
     Z-matrix
      Center          Function          Population
 -------------------------------------------------------
         1                               5.72111896
         2                               7.05702906
         3                               8.37255337
         4                               0.84929862
 -------------------------------------------------------
 
  Mulliken population analysis of CCSD(T) density.
   Total density is analyzed.
 
  Population analysis by orbitals.
 -------------------------------------------------------
     Z-matrix
      Center          Function          Population
 -------------------------------------------------------
         1                S              1.99781700
         1                S              1.41851912
         1                S             -0.00138244
         1                S             -0.20277463
         1                P              1.01200930
         1                P             -0.11209839
         1                P             -0.15567367
         1                P              1.20911732
         1                P             -0.15589210
         1                P             -0.18205531
         1                P              0.91988211
         1                P             -0.01278877
         1                P             -0.08214726
         1                D              0.00909491
         1                D              0.02877106
         1                D              0.01583643
         1                D              0.02332886
         1                D              0.00975893
         1                D              0.04849487
         1                D              0.01044434
         1                D              0.03213591
         1                D              0.00621478
         1                D              0.01851812
         1                D              0.00383662
         1                D              0.00941409
         1                F              0.00065120
         1                F              0.00458143
         1                F              0.00111380
         1                F              0.00244969
         1                F              0.00574471
         1                F              0.00117161
         1                F              0.00204613
         1                F              0.00179208
         1                F              0.00153343
         1                F              0.00127768
         2                S              1.99739045
         2                S              1.81958758
         2                S              0.00595171
         2                S             -0.10716741
         2                P              0.83471980
         2                P             -0.02175248
         2                P             -0.03176518
         2                P              1.29952646
         2                P             -0.04640620
         2                P             -0.05123234
         2                P              1.32177646
         2                P             -0.02607000
         2                P             -0.01435518
         2                D              0.00225959
         2                D              0.01138929
         2                D              0.00522244
         2                D              0.01488774
         2                D              0.00279670
         2                D              0.01083553
         2                D              0.00254911
         2                D              0.00967404
         2                D              0.00319956
         2                D              0.01273652
         2                D              0.00205075
         2                D              0.00508640
         2                F              0.00053306
         2                F              0.00110728
         2                F              0.00056076
         2                F              0.00110511
         2                F              0.00092858
         2                F              0.00074666
         2                F              0.00036713
         2                F              0.00056566
         2                F              0.00064221
         2                F              0.00041536
         3                S              1.99737422
         3                S              1.86945852
         3                S              0.00520373
         3                S             -0.05745421
         3                P              1.15696592
         3                P             -0.00696283
         3                P             -0.03535556
         3                P              1.47906141
         3                P             -0.01285316
         3                P             -0.02951484
         3                P              1.73965115
         3                P             -0.01850822
         3                P              0.02616946
         3                D              0.00158656
         3                D              0.00846450
         3                D              0.00306286
         3                D              0.01425937
         3                D              0.00219018
         3                D              0.00925874
         3                D              0.00146040
         3                D              0.00637520
         3                D              0.00207635
         3                D              0.00687034
         3                D              0.00153820
         3                D              0.00519178
         3                F              0.00034794
         3                F              0.00082702
         3                F              0.00049608
         3                F              0.00075145
         3                F              0.00065402
         3                F              0.00062598
         3                F              0.00023692
         3                F              0.00037031
         3                F              0.00050898
         3                F              0.00027168
         4                S              1.37233533
         4                S             -0.22463873
         4                S             -0.31854709
         4                P              0.00103556
         4                P              0.00604696
         4                P              0.00825293
         4                P              0.00345103
         4                P              0.00122151
         4                P              0.00742658
         4                D              0.00024425
         4                D              0.00051804
         4                D              0.00008160
         4                D              0.00074998
         4                D              0.00034736
         4                D              0.00020812
 -------------------------------------------------------
  Population analysis by atoms (atomic charges).
 -------------------------------------------------------
     Z-matrix
      Center          Function          Population
 -------------------------------------------------------
         1                               5.89074297
         2                               7.06986317
         3                               8.18066044
         4                               0.85873343
 -------------------------------------------------------
 @CHECKOUT-I, Total execution time (CPU/WALL):        0.06/       0.18 seconds.
--executable xprops finished with status     0 in        0.27 seconds (walltime).
  The final electronic energy is      -168.296694960901220 a.u. 
  This computation required                         1990.46 seconds (walltime).

real	33m10.490s
user	18m31.358s
sys	5m25.812s
