 Entering Gaussian System, Link 0=/home/orgChemistry/bin/gaussian16-C.01/g16/g16
 Initial command:
 /home/orgChemistry/bin/gaussian16-C.01/g16/l1.exe "/scratch/agSchreiner/ruthm/139850/gaussian_iso5_cc.iso5_cc_b3lyp_6311_G_3df_3dp/Gau-221596.inp" -scrdir="/scratch/agSchreiner/ruthm/139850/gaussian_iso5_cc.iso5_cc_b3lyp_6311_G_3df_3dp/"
 Entering Link 1 = /home/orgChemistry/bin/gaussian16-C.01/g16/l1.exe PID=    221601.
  
 Copyright (c) 1988-2019, Gaussian, Inc.  All Rights Reserved.
  
 This is part of the Gaussian(R) 16 program.  It is based on
 the Gaussian(R) 09 system (copyright 2009, Gaussian, Inc.),
 the Gaussian(R) 03 system (copyright 2003, Gaussian, Inc.),
 the Gaussian(R) 98 system (copyright 1998, Gaussian, Inc.),
 the Gaussian(R) 94 system (copyright 1995, Gaussian, Inc.),
 the Gaussian 92(TM) system (copyright 1992, Gaussian, Inc.),
 the Gaussian 90(TM) system (copyright 1990, Gaussian, Inc.),
 the Gaussian 88(TM) system (copyright 1988, Gaussian, Inc.),
 the Gaussian 86(TM) system (copyright 1986, Carnegie Mellon
 University), and the Gaussian 82(TM) system (copyright 1983,
 Carnegie Mellon University). Gaussian is a federally registered
 trademark of Gaussian, Inc.
  
 This software contains proprietary and confidential information,
 including trade secrets, belonging to Gaussian, Inc.
  
 This software is provided under written license and may be
 used, copied, transmitted, or stored only in accord with that
 written license.
  
 The following legend is applicable only to US Government
 contracts under FAR:
  
                    RESTRICTED RIGHTS LEGEND
  
 Use, reproduction and disclosure by the US Government is
 subject to restrictions as set forth in subparagraphs (a)
 and (c) of the Commercial Computer Software - Restricted
 Rights clause in FAR 52.227-19.
  
 Gaussian, Inc.
 340 Quinnipiac St., Bldg. 40, Wallingford CT 06492
  
  
 ---------------------------------------------------------------
 Warning -- This program may not be used in any manner that
 competes with the business of Gaussian, Inc. or will provide
 assistance to any competitor of Gaussian, Inc.  The licensee
 of this program is prohibited from giving any competitor of
 Gaussian, Inc. access to this program.  By using this program,
 the user acknowledges that Gaussian, Inc. is engaged in the
 business of creating and licensing software in the field of
 computational chemistry and represents and warrants to the
 licensee that it is not a competitor of Gaussian, Inc. and that
 it will not use this program in any manner prohibited above.
 ---------------------------------------------------------------
  

 Cite this work as:
 Gaussian 16, Revision C.01,
 M. J. Frisch, G. W. Trucks, H. B. Schlegel, G. E. Scuseria, 
 M. A. Robb, J. R. Cheeseman, G. Scalmani, V. Barone, 
 G. A. Petersson, H. Nakatsuji, X. Li, M. Caricato, A. V. Marenich, 
 J. Bloino, B. G. Janesko, R. Gomperts, B. Mennucci, H. P. Hratchian, 
 J. V. Ortiz, A. F. Izmaylov, J. L. Sonnenberg, D. Williams-Young, 
 F. Ding, F. Lipparini, F. Egidi, J. Goings, B. Peng, A. Petrone, 
 T. Henderson, D. Ranasinghe, V. G. Zakrzewski, J. Gao, N. Rega, 
 G. Zheng, W. Liang, M. Hada, M. Ehara, K. Toyota, R. Fukuda, 
 J. Hasegawa, M. Ishida, T. Nakajima, Y. Honda, O. Kitao, H. Nakai, 
 T. Vreven, K. Throssell, J. A. Montgomery, Jr., J. E. Peralta, 
 F. Ogliaro, M. J. Bearpark, J. J. Heyd, E. N. Brothers, K. N. Kudin, 
 V. N. Staroverov, T. A. Keith, R. Kobayashi, J. Normand, 
 K. Raghavachari, A. P. Rendell, J. C. Burant, S. S. Iyengar, 
 J. Tomasi, M. Cossi, J. M. Millam, M. Klene, C. Adamo, R. Cammi, 
 J. W. Ochterski, R. L. Martin, K. Morokuma, O. Farkas, 
 J. B. Foresman, and D. J. Fox, Gaussian, Inc., Wallingford CT, 2019.
 
 ******************************************
 Gaussian 16:  ES64L-G16RevC.01  3-Jul-2019
                26-Jan-2021 
 ******************************************
 %Chk=file_name
 %NProcShared=24
 Will use up to   24 processors via shared memory.
 %mem=48000mb
 -------------------------------------------
 #p b3lyp/6-311++G(3df,3pd) opt freq=noraman
 -------------------------------------------
 1/18=20,19=15,26=3,38=1/1,3;
 2/9=110,12=2,17=6,18=5,40=1/2;
 3/5=4,6=6,7=1616,11=2,25=1,30=1,71=1,74=-5/1,2,3;
 4//1;
 5/5=2,38=5/2;
 6/7=2,8=2,9=2,10=2,28=1/1;
 7//1,2,3,16;
 1/18=20,19=15,26=3/3(2);
 2/9=110/2;
 99//99;
 2/9=110/2;
 3/5=4,6=6,7=1616,11=2,25=1,30=1,71=1,74=-5/1,2,3;
 4/5=5,16=3,69=1/1;
 5/5=2,38=5/2;
 7//1,2,3,16;
 1/18=20,19=15,26=3/3(-5);
 2/9=110/2;
 6/7=2,8=2,9=2,10=2,19=2,28=1/1;
 99/9=1/99;
 Leave Link    1 at Tue Jan 26 00:24:30 2021, MaxMem=  6291456000 cpu:               5.3 elap:               0.4
 (Enter /home/orgChemistry/bin/gaussian16-C.01/g16/l101.exe)
 -----
 title
 -----
 Symbolic Z-matrix:
 Charge =  0 Multiplicity = 1
 6                    -2.47181   0.7338   -0.02095 
 7                    -1.25575   0.33358  -0.08085 
 8                    -2.74131   2.05254   0.02623 
 1                    -3.28412   0.01175  -0.00821 
 1                    -3.65485   2.3665    0.07158 
 1                    -1.03627  -0.67238  -0.1174 
 
 ITRead=  0  0  0  0  0  0
 MicOpt= -1 -1 -1 -1 -1 -1
 NAtoms=      6 NQM=        6 NQMF=       0 NMMI=      0 NMMIF=      0
                NMic=       0 NMicF=      0.
                    Isotopes and Nuclear Properties:
 (Nuclear quadrupole moments (NQMom) in fm**2, nuclear magnetic moments (NMagM)
  in nuclear magnetons)

  Atom         1           2           3           4           5           6
 IAtWgt=          12          14          16           1           1           1
 AtmWgt=  12.0000000  14.0030740  15.9949146   1.0078250   1.0078250   1.0078250
 NucSpn=           0           2           0           1           1           1
 AtZEff=  -0.0000000  -0.0000000  -0.0000000  -0.0000000  -0.0000000  -0.0000000
 NQMom=    0.0000000   2.0440000   0.0000000   0.0000000   0.0000000   0.0000000
 NMagM=    0.0000000   0.4037610   0.0000000   2.7928460   2.7928460   2.7928460
 AtZNuc=   6.0000000   7.0000000   8.0000000   1.0000000   1.0000000   1.0000000
 Leave Link  101 at Tue Jan 26 00:24:34 2021, MaxMem=  6291456000 cpu:               8.3 elap:               0.4
 (Enter /home/orgChemistry/bin/gaussian16-C.01/g16/l103.exe)

 GradGradGradGradGradGradGradGradGradGradGradGradGradGradGradGradGradGrad
 Berny optimization.
 Initialization pass.
                           ----------------------------
                           !    Initial Parameters    !
                           ! (Angstroms and Degrees)  !
 --------------------------                            --------------------------
 ! Name  Definition              Value          Derivative Info.                !
 --------------------------------------------------------------------------------
 ! R1    R(1,2)                  1.2816         estimate D2E/DX2                !
 ! R2    R(1,3)                  1.3468         estimate D2E/DX2                !
 ! R3    R(1,4)                  1.0869         estimate D2E/DX2                !
 ! R4    R(2,6)                  1.0303         estimate D2E/DX2                !
 ! R5    R(3,5)                  0.967          estimate D2E/DX2                !
 ! A1    A(2,1,3)              119.8197         estimate D2E/DX2                !
 ! A2    A(2,1,4)              120.1471         estimate D2E/DX2                !
 ! A3    A(3,1,4)              120.0332         estimate D2E/DX2                !
 ! A4    A(1,2,6)              120.5773         estimate D2E/DX2                !
 ! A5    A(1,3,5)              120.568          estimate D2E/DX2                !
 ! D1    D(3,1,2,6)           -179.9998         estimate D2E/DX2                !
 ! D2    D(4,1,2,6)              0.0            estimate D2E/DX2                !
 ! D3    D(2,1,3,5)            179.9993         estimate D2E/DX2                !
 ! D4    D(4,1,3,5)             -0.0006         estimate D2E/DX2                !
 --------------------------------------------------------------------------------
 Trust Radius=3.00D-01 FncErr=1.00D-07 GrdErr=1.00D-06 EigMax=2.50D+02 EigMin=1.00D-04
 Number of steps in this run=     24 maximum allowed number of steps=    100.
 GradGradGradGradGradGradGradGradGradGradGradGradGradGradGradGradGradGrad

 Leave Link  103 at Tue Jan 26 00:24:36 2021, MaxMem=  6291456000 cpu:               0.4 elap:               0.2
 (Enter /home/orgChemistry/bin/gaussian16-C.01/g16/l202.exe)
                          Input orientation:                          
 ---------------------------------------------------------------------
 Center     Atomic      Atomic             Coordinates (Angstroms)
 Number     Number       Type             X           Y           Z
 ---------------------------------------------------------------------
      1          6           0       -2.471805    0.733800   -0.020949
      2          7           0       -1.255748    0.333576   -0.080850
      3          8           0       -2.741311    2.052542    0.026228
      4          1           0       -3.284115    0.011752   -0.008209
      5          1           0       -3.654845    2.366496    0.071582
      6          1           0       -1.036268   -0.672378   -0.117399
 ---------------------------------------------------------------------
                    Distance matrix (angstroms):
                    1          2          3          4          5
     1  C    0.000000
     2  N    1.281625   0.000000
     3  O    1.346826   2.274469   0.000000
     4  H    1.086905   2.055023   2.112024   0.000000
     5  H    2.018376   3.148279   0.967041   2.385084   0.000000
     6  H    2.011817   1.030268   3.217607   2.352185   4.015895
                    6
     6  H    0.000000
 Stoichiometry    CH3NO
 Framework group  C1[X(CH3NO)]
 Deg. of freedom    12
 Full point group                 C1      NOp   1
 Largest Abelian subgroup         C1      NOp   1
 Largest concise Abelian subgroup C1      NOp   1
                         Standard orientation:                         
 ---------------------------------------------------------------------
 Center     Atomic      Atomic             Coordinates (Angstroms)
 Number     Number       Type             X           Y           Z
 ---------------------------------------------------------------------
      1          6           0        0.078844    0.378741   -0.000001
      2          7           0        1.163808   -0.303473    0.000000
      3          8           0       -1.110122   -0.253953   -0.000001
      4          1           0        0.117044    1.464974   -0.000000
      5          1           0       -1.935426    0.250071    0.000009
      6          1           0        2.079639    0.168443    0.000003
 ---------------------------------------------------------------------
 Rotational constants (GHZ):          81.2576667          10.7758762           9.5141676
 Leave Link  202 at Tue Jan 26 00:24:40 2021, MaxMem=  6291456000 cpu:               5.1 elap:               0.4
 (Enter /home/orgChemistry/bin/gaussian16-C.01/g16/l301.exe)
 Standard basis: 6-311++G(3df,3pd) (5D, 7F)
 Ernie: Thresh=  0.10000D-02 Tol=  0.10000D-05 Strict=F.
 There are   192 symmetry adapted cartesian basis functions of A   symmetry.
 There are   171 symmetry adapted basis functions of A   symmetry.
   171 basis functions,   237 primitive gaussians,   192 cartesian basis functions
    12 alpha electrons       12 beta electrons
       nuclear repulsion energy        70.1535660045 Hartrees.
 IExCor=  402 DFT=T Ex+Corr=B3LYP ExCW=0 ScaHFX=  0.200000
 ScaDFX=  0.800000  0.720000  1.000000  0.810000 ScalE2=  1.000000  1.000000
 IRadAn=      5 IRanWt=     -1 IRanGd=            0 ICorTp=0 IEmpDi=  4
 NAtoms=    6 NActive=    6 NUniq=    6 SFac= 1.00D+00 NAtFMM=   60 NAOKFM=F Big=F
 Integral buffers will be    131072 words long.
 Raffenetti 2 integral format.
 Two-electron integral symmetry is turned on.
 Leave Link  301 at Tue Jan 26 00:24:43 2021, MaxMem=  6291456000 cpu:               1.1 elap:               0.2
 (Enter /home/orgChemistry/bin/gaussian16-C.01/g16/l302.exe)
 NPDir=0 NMtPBC=     1 NCelOv=     1 NCel=       1 NClECP=     1 NCelD=      1
         NCelK=      1 NCelE2=     1 NClLst=     1 CellRange=     0.0.
 One-electron integrals computed using PRISM.
 One-electron integral symmetry used in STVInt
 NBasis=   171 RedAO= T EigKep=  2.14D-04  NBF=   171
 NBsUse=   171 1.00D-06 EigRej= -1.00D+00 NBFU=   171
 Precomputing XC quadrature grid using
 IXCGrd= 4 IRadAn=           5 IRanWt=          -1 IRanGd=           0 AccXCQ= 0.00D+00.
 Generated NRdTot=       0 NPtTot=           0 NUsed=           0 NTot=          32
 NSgBfM=   192   192   192   192   192 MxSgAt=     6 MxSgA2=     6.
 Leave Link  302 at Tue Jan 26 00:24:46 2021, MaxMem=  6291456000 cpu:               6.2 elap:               0.5
 (Enter /home/orgChemistry/bin/gaussian16-C.01/g16/l303.exe)
 DipDrv:  MaxL=1.
 Leave Link  303 at Tue Jan 26 00:24:51 2021, MaxMem=  6291456000 cpu:               7.3 elap:               0.6
 (Enter /home/orgChemistry/bin/gaussian16-C.01/g16/l401.exe)
 ExpMin= 3.60D-02 ExpMax= 8.59D+03 ExpMxC= 1.30D+03 IAcc=3 IRadAn=         5 AccDes= 0.00D+00
 Harris functional with IExCor=  402 and IRadAn=       5 diagonalized for initial guess.
 HarFok:  IExCor=  402 AccDes= 0.00D+00 IRadAn=         5 IDoV= 1 UseB2=F ITyADJ=14
 ICtDFT=  3500011 ScaDFX=  1.000000  1.000000  1.000000  1.000000
 FoFCou: FMM=F IPFlag=           0 FMFlag=      100000 FMFlg1=           0
         NFxFlg=           0 DoJE=T BraDBF=F KetDBF=T FulRan=T
         wScrn=  0.000000 ICntrl=       500 IOpCl=  0 I1Cent=   200000004 NGrid=           0
         NMat0=    1 NMatS0=      1 NMatT0=    0 NMatD0=    1 NMtDS0=    0 NMtDT0=    0
 Petite list used in FoFCou.
 Harris En= -169.952972464860    
 JPrj=0 DoOrth=F DoCkMO=F.
 Leave Link  401 at Tue Jan 26 00:24:57 2021, MaxMem=  6291456000 cpu:               6.1 elap:               0.3
 (Enter /home/orgChemistry/bin/gaussian16-C.01/g16/l502.exe)
 Keep R1 ints in memory in canonical form, NReq=132662971.
 FoFCou: FMM=F IPFlag=           0 FMFlag=           0 FMFlg1=           0
         NFxFlg=           0 DoJE=F BraDBF=F KetDBF=F FulRan=T
         wScrn=  0.000000 ICntrl=       600 IOpCl=  0 I1Cent=           0 NGrid=           0
         NMat0=    1 NMatS0=  14706 NMatT0=    0 NMatD0=    1 NMtDS0=    0 NMtDT0=    0
 Symmetry not used in FoFCou.
 Two-electron integral symmetry not used.
 Closed shell SCF:
 Using DIIS extrapolation, IDIIS=  1040.
 NGot=  6291456000 LenX=  6183235241 LenY=  6183197936
 Requested convergence on RMS density matrix=1.00D-08 within 128 cycles.
 Requested convergence on MAX density matrix=1.00D-06.
 Requested convergence on             energy=1.00D-06.
 No special actions if energy rises.

 Cycle   1  Pass 1  IDiag  1:
 E= -169.815376632674    
 DIIS: error= 3.11D-02 at cycle   1 NSaved=   1.
 NSaved= 1 IEnMin= 1 EnMin= -169.815376632674     IErMin= 1 ErrMin= 3.11D-02
 ErrMax= 3.11D-02  0.00D+00 EMaxC= 1.00D-01 BMatC= 1.59D-01 BMatP= 1.59D-01
 IDIUse=3 WtCom= 6.89D-01 WtEn= 3.11D-01
 Coeff-Com:  0.100D+01
 Coeff-En:   0.100D+01
 Coeff:      0.100D+01
 Gap=     0.186 Goal=   None    Shift=    0.000
 GapD=    0.186 DampG=1.000 DampE=0.500 DampFc=0.5000 IDamp=-1.
 Damping current iteration by 5.00D-01
 RMSDP=5.45D-03 MaxDP=1.66D-01              OVMax= 2.88D-01

 Cycle   2  Pass 1  IDiag  1:
 E= -169.829527749826     Delta-E=       -0.014151117152 Rises=F Damp=T
 DIIS: error= 1.53D-02 at cycle   2 NSaved=   2.
 NSaved= 2 IEnMin= 2 EnMin= -169.829527749826     IErMin= 2 ErrMin= 1.53D-02
 ErrMax= 1.53D-02  0.00D+00 EMaxC= 1.00D-01 BMatC= 2.49D-02 BMatP= 1.59D-01
 IDIUse=3 WtCom= 8.47D-01 WtEn= 1.53D-01
 Coeff-Com:  0.245D+00 0.755D+00
 Coeff-En:   0.448D+00 0.552D+00
 Coeff:      0.276D+00 0.724D+00
 Gap=     0.241 Goal=   None    Shift=    0.000
 RMSDP=1.90D-03 MaxDP=6.21D-02 DE=-1.42D-02 OVMax= 2.26D-01

 Cycle   3  Pass 1  IDiag  1:
 E= -169.922825775448     Delta-E=       -0.093298025622 Rises=F Damp=F
 DIIS: error= 7.06D-03 at cycle   3 NSaved=   3.
 NSaved= 3 IEnMin= 3 EnMin= -169.922825775448     IErMin= 3 ErrMin= 7.06D-03
 ErrMax= 7.06D-03  0.00D+00 EMaxC= 1.00D-01 BMatC= 9.23D-03 BMatP= 2.49D-02
 IDIUse=3 WtCom= 9.29D-01 WtEn= 7.06D-02
 Coeff-Com:  0.898D-01 0.396D+00 0.514D+00
 Coeff-En:   0.000D+00 0.000D+00 0.100D+01
 Coeff:      0.835D-01 0.368D+00 0.548D+00
 Gap=     0.242 Goal=   None    Shift=    0.000
 RMSDP=4.69D-04 MaxDP=1.44D-02 DE=-9.33D-02 OVMax= 6.66D-02

 Cycle   4  Pass 1  IDiag  1:
 E= -169.928616029728     Delta-E=       -0.005790254280 Rises=F Damp=F
 DIIS: error= 5.04D-03 at cycle   4 NSaved=   4.
 NSaved= 4 IEnMin= 4 EnMin= -169.928616029728     IErMin= 4 ErrMin= 5.04D-03
 ErrMax= 5.04D-03  0.00D+00 EMaxC= 1.00D-01 BMatC= 3.30D-03 BMatP= 9.23D-03
 IDIUse=3 WtCom= 9.50D-01 WtEn= 5.04D-02
 Coeff-Com: -0.147D-02 0.941D-01 0.378D+00 0.529D+00
 Coeff-En:   0.000D+00 0.000D+00 0.269D+00 0.731D+00
 Coeff:     -0.140D-02 0.894D-01 0.372D+00 0.539D+00
 Gap=     0.246 Goal=   None    Shift=    0.000
 RMSDP=1.85D-04 MaxDP=7.04D-03 DE=-5.79D-03 OVMax= 1.99D-02

 Cycle   5  Pass 1  IDiag  1:
 E= -169.931036398666     Delta-E=       -0.002420368937 Rises=F Damp=F
 DIIS: error= 6.90D-04 at cycle   5 NSaved=   5.
 NSaved= 5 IEnMin= 5 EnMin= -169.931036398666     IErMin= 5 ErrMin= 6.90D-04
 ErrMax= 6.90D-04  0.00D+00 EMaxC= 1.00D-01 BMatC= 9.69D-05 BMatP= 3.30D-03
 IDIUse=3 WtCom= 9.93D-01 WtEn= 6.90D-03
 Coeff-Com: -0.456D-02 0.195D-01 0.153D+00 0.262D+00 0.570D+00
 Coeff-En:   0.000D+00 0.000D+00 0.000D+00 0.000D+00 0.100D+01
 Coeff:     -0.453D-02 0.194D-01 0.152D+00 0.261D+00 0.573D+00
 Gap=     0.244 Goal=   None    Shift=    0.000
 RMSDP=4.15D-05 MaxDP=2.01D-03 DE=-2.42D-03 OVMax= 3.21D-03

 Cycle   6  Pass 1  IDiag  1:
 E= -169.931108401342     Delta-E=       -0.000072002676 Rises=F Damp=F
 DIIS: error= 2.55D-04 at cycle   6 NSaved=   6.
 NSaved= 6 IEnMin= 6 EnMin= -169.931108401342     IErMin= 6 ErrMin= 2.55D-04
 ErrMax= 2.55D-04  0.00D+00 EMaxC= 1.00D-01 BMatC= 8.64D-06 BMatP= 9.69D-05
 IDIUse=3 WtCom= 9.97D-01 WtEn= 2.55D-03
 Coeff-Com: -0.131D-02-0.838D-03 0.332D-01 0.623D-01 0.274D+00 0.633D+00
 Coeff-En:   0.000D+00 0.000D+00 0.000D+00 0.000D+00 0.000D+00 0.100D+01
 Coeff:     -0.130D-02-0.836D-03 0.331D-01 0.621D-01 0.273D+00 0.634D+00
 Gap=     0.245 Goal=   None    Shift=    0.000
 RMSDP=1.37D-05 MaxDP=4.18D-04 DE=-7.20D-05 OVMax= 7.43D-04

 Cycle   7  Pass 1  IDiag  1:
 E= -169.931115548325     Delta-E=       -0.000007146983 Rises=F Damp=F
 DIIS: error= 2.85D-05 at cycle   7 NSaved=   7.
 NSaved= 7 IEnMin= 7 EnMin= -169.931115548325     IErMin= 7 ErrMin= 2.85D-05
 ErrMax= 2.85D-05  0.00D+00 EMaxC= 1.00D-01 BMatC= 1.31D-07 BMatP= 8.64D-06
 IDIUse=1 WtCom= 1.00D+00 WtEn= 0.00D+00
 Coeff-Com:  0.290D-03-0.138D-02 0.348D-03-0.520D-03 0.278D-01 0.876D-01
 Coeff-Com:  0.886D+00
 Coeff:      0.290D-03-0.138D-02 0.348D-03-0.520D-03 0.278D-01 0.876D-01
 Coeff:      0.886D+00
 Gap=     0.245 Goal=   None    Shift=    0.000
 RMSDP=2.13D-06 MaxDP=4.89D-05 DE=-7.15D-06 OVMax= 1.54D-04

 Cycle   8  Pass 1  IDiag  1:
 E= -169.931115659031     Delta-E=       -0.000000110706 Rises=F Damp=F
 DIIS: error= 5.92D-06 at cycle   8 NSaved=   8.
 NSaved= 8 IEnMin= 8 EnMin= -169.931115659031     IErMin= 8 ErrMin= 5.92D-06
 ErrMax= 5.92D-06  0.00D+00 EMaxC= 1.00D-01 BMatC= 4.15D-09 BMatP= 1.31D-07
 IDIUse=1 WtCom= 1.00D+00 WtEn= 0.00D+00
 Coeff-Com:  0.115D-03-0.243D-03-0.375D-03-0.143D-02-0.177D-02-0.450D-02
 Coeff-Com:  0.169D+00 0.839D+00
 Coeff:      0.115D-03-0.243D-03-0.375D-03-0.143D-02-0.177D-02-0.450D-02
 Coeff:      0.169D+00 0.839D+00
 Gap=     0.245 Goal=   None    Shift=    0.000
 RMSDP=3.95D-07 MaxDP=1.08D-05 DE=-1.11D-07 OVMax= 3.22D-05

 Cycle   9  Pass 1  IDiag  1:
 E= -169.931115662638     Delta-E=       -0.000000003608 Rises=F Damp=F
 DIIS: error= 9.30D-07 at cycle   9 NSaved=   9.
 NSaved= 9 IEnMin= 9 EnMin= -169.931115662638     IErMin= 9 ErrMin= 9.30D-07
 ErrMax= 9.30D-07  0.00D+00 EMaxC= 1.00D-01 BMatC= 1.51D-10 BMatP= 4.15D-09
 IDIUse=1 WtCom= 1.00D+00 WtEn= 0.00D+00
 Coeff-Com:  0.140D-05-0.337D-05-0.364D-05-0.182D-03-0.112D-02-0.295D-02
 Coeff-Com: -0.116D-01 0.600D-01 0.956D+00
 Coeff:      0.140D-05-0.337D-05-0.364D-05-0.182D-03-0.112D-02-0.295D-02
 Coeff:     -0.116D-01 0.600D-01 0.956D+00
 Gap=     0.245 Goal=   None    Shift=    0.000
 RMSDP=7.07D-08 MaxDP=2.22D-06 DE=-3.61D-09 OVMax= 5.18D-06

 Cycle  10  Pass 1  IDiag  1:
 E= -169.931115662772     Delta-E=       -0.000000000134 Rises=F Damp=F
 DIIS: error= 2.09D-07 at cycle  10 NSaved=  10.
 NSaved=10 IEnMin=10 EnMin= -169.931115662772     IErMin=10 ErrMin= 2.09D-07
 ErrMax= 2.09D-07  0.00D+00 EMaxC= 1.00D-01 BMatC= 4.24D-12 BMatP= 1.51D-10
 IDIUse=1 WtCom= 1.00D+00 WtEn= 0.00D+00
 Coeff-Com: -0.138D-05 0.295D-05 0.202D-04 0.489D-05-0.134D-03-0.379D-03
 Coeff-Com: -0.555D-02-0.111D-01 0.158D+00 0.859D+00
 Coeff:     -0.138D-05 0.295D-05 0.202D-04 0.489D-05-0.134D-03-0.379D-03
 Coeff:     -0.555D-02-0.111D-01 0.158D+00 0.859D+00
 Gap=     0.245 Goal=   None    Shift=    0.000
 RMSDP=9.68D-09 MaxDP=3.97D-07 DE=-1.34D-10 OVMax= 6.40D-07

 SCF Done:  E(RB3LYP) =  -169.931115663     A.U. after   10 cycles
            NFock= 10  Conv=0.97D-08     -V/T= 2.0049
 KE= 1.691037668447D+02 PE=-5.388173039198D+02 EE= 1.296288554078D+02
 Leave Link  502 at Tue Jan 26 00:25:04 2021, MaxMem=  6291456000 cpu:              45.9 elap:               3.8
 (Enter /home/orgChemistry/bin/gaussian16-C.01/g16/l601.exe)
 Copying SCF densities to generalized density rwf, IOpCl= 0 IROHF=0.

 **********************************************************************

            Population analysis using the SCF Density.

 **********************************************************************

 Orbital symmetries:
       Occupied  (A) (A) (A) (A) (A) (A) (A) (A) (A) (A) (A) (A)
       Virtual   (A) (A) (A) (A) (A) (A) (A) (A) (A) (A) (A) (A)
                 (A) (A) (A) (A) (A) (A) (A) (A) (A) (A) (A) (A)
                 (A) (A) (A) (A) (A) (A) (A) (A) (A) (A) (A) (A)
                 (A) (A) (A) (A) (A) (A) (A) (A) (A) (A) (A) (A)
                 (A) (A) (A) (A) (A) (A) (A) (A) (A) (A) (A) (A)
                 (A) (A) (A) (A) (A) (A) (A) (A) (A) (A) (A) (A)
                 (A) (A) (A) (A) (A) (A) (A) (A) (A) (A) (A) (A)
                 (A) (A) (A) (A) (A) (A) (A) (A) (A) (A) (A) (A)
                 (A) (A) (A) (A) (A) (A) (A) (A) (A) (A) (A) (A)
                 (A) (A) (A) (A) (A) (A) (A) (A) (A) (A) (A) (A)
                 (A) (A) (A) (A) (A) (A) (A) (A) (A) (A) (A) (A)
                 (A) (A) (A) (A) (A) (A) (A) (A) (A) (A) (A) (A)
                 (A) (A) (A) (A) (A) (A) (A) (A) (A) (A) (A) (A)
                 (A) (A) (A)
 The electronic state is 1-A.
 Alpha  occ. eigenvalues --  -19.17761 -14.29649 -10.28167  -1.08662  -0.88722
 Alpha  occ. eigenvalues --   -0.65311  -0.56614  -0.50408  -0.42643  -0.39338
 Alpha  occ. eigenvalues --   -0.28807  -0.26980
 Alpha virt. eigenvalues --   -0.02446  -0.00609   0.00433   0.02470   0.05683
 Alpha virt. eigenvalues --    0.06783   0.08328   0.09834   0.13103   0.13844
 Alpha virt. eigenvalues --    0.15665   0.15682   0.16398   0.20443   0.20900
 Alpha virt. eigenvalues --    0.24004   0.25183   0.27788   0.29685   0.30012
 Alpha virt. eigenvalues --    0.31422   0.34863   0.37809   0.39191   0.42111
 Alpha virt. eigenvalues --    0.42753   0.46304   0.50138   0.50962   0.52969
 Alpha virt. eigenvalues --    0.55069   0.58364   0.61742   0.62143   0.63778
 Alpha virt. eigenvalues --    0.66729   0.69128   0.74532   0.75905   0.76952
 Alpha virt. eigenvalues --    0.77732   0.81964   0.87859   0.88557   0.94291
 Alpha virt. eigenvalues --    0.95879   0.96253   0.99789   1.04340   1.06426
 Alpha virt. eigenvalues --    1.09310   1.18941   1.19693   1.21298   1.23309
 Alpha virt. eigenvalues --    1.39146   1.43470   1.49321   1.59139   1.64327
 Alpha virt. eigenvalues --    1.70486   1.76374   1.80357   1.83879   1.87173
 Alpha virt. eigenvalues --    1.94745   2.00686   2.03760   2.06746   2.10121
 Alpha virt. eigenvalues --    2.22581   2.33116   2.41087   2.44372   2.54787
 Alpha virt. eigenvalues --    2.56409   2.60543   2.67864   2.68784   2.80319
 Alpha virt. eigenvalues --    2.81667   2.87337   2.92224   2.98955   3.02912
 Alpha virt. eigenvalues --    3.04615   3.07475   3.08667   3.15427   3.15602
 Alpha virt. eigenvalues --    3.19154   3.25757   3.26090   3.34425   3.45089
 Alpha virt. eigenvalues --    3.49557   3.53413   3.63578   3.68264   3.77881
 Alpha virt. eigenvalues --    3.78739   3.86009   3.96347   3.98890   4.04597
 Alpha virt. eigenvalues --    4.09359   4.18286   4.32072   4.34875   4.35274
 Alpha virt. eigenvalues --    4.50830   4.58264   4.58463   4.62709   4.74645
 Alpha virt. eigenvalues --    4.91868   4.93518   5.07317   5.11577   5.21685
 Alpha virt. eigenvalues --    5.32774   5.41884   5.43446   5.49095   5.67297
 Alpha virt. eigenvalues --    5.92945   5.94208   6.34659   6.34849   6.51655
 Alpha virt. eigenvalues --    6.66049   7.18805   7.18924   7.31387   7.37952
 Alpha virt. eigenvalues --    7.81284   8.10036   8.27882   8.31382   8.36484
 Alpha virt. eigenvalues --    8.44097   8.51136   8.57329   9.13993   9.47309
 Alpha virt. eigenvalues --    9.61654  10.37508  10.45623  10.72983  11.17429
 Alpha virt. eigenvalues --   11.41513  14.38804  14.50391  14.63274  15.08123
 Alpha virt. eigenvalues --   15.27008  25.58437  36.81483  50.51397
          Condensed to atoms (all electrons):
               1          2          3          4          5          6
     1  C    4.434086   0.239078   0.078780   0.396808   0.010637  -0.015540
     2  N    0.239078   7.778164  -0.134085  -0.073067   0.010701   0.110227
     3  O    0.078780  -0.134085   8.713491  -0.069686   0.120197   0.020394
     4  H    0.396808  -0.073067  -0.069686   0.773570  -0.010787  -0.031312
     5  H    0.010637   0.010701   0.120197  -0.010787   0.385824  -0.001162
     6  H   -0.015540   0.110227   0.020394  -0.031312  -0.001162   0.612497
 Mulliken charges:
               1
     1  C    0.856151
     2  N   -0.931019
     3  O   -0.729091
     4  H    0.014474
     5  H    0.484589
     6  H    0.304895
 Sum of Mulliken charges =  -0.00000
 Mulliken charges with hydrogens summed into heavy atoms:
               1
     1  C    0.870625
     2  N   -0.626123
     3  O   -0.244502
 Electronic spatial extent (au):  <R**2>=            151.1348
 Charge=             -0.0000 electrons
 Dipole moment (field-independent basis, Debye):
    X=             -1.3783    Y=              3.2657    Z=              0.0000  Tot=              3.5447
 Quadrupole moment (field-independent basis, Debye-Ang):
   XX=            -12.3554   YY=            -19.2318   ZZ=            -19.3356
   XY=              0.3121   XZ=             -0.0000   YZ=              0.0000
 Traceless Quadrupole moment (field-independent basis, Debye-Ang):
   XX=              4.6189   YY=             -2.2575   ZZ=             -2.3613
   XY=              0.3121   XZ=             -0.0000   YZ=              0.0000
 Octapole moment (field-independent basis, Debye-Ang**2):
  XXX=             -8.1475  YYY=              3.5026  ZZZ=              0.0000  XYY=             -2.7318
  XXY=              5.6931  XXZ=              0.0001  XZZ=             -2.0017  YZZ=              0.2846
  YYZ=              0.0000  XYZ=             -0.0000
 Hexadecapole moment (field-independent basis, Debye-Ang**3):
 XXXX=            -84.3766 YYYY=            -39.8582 ZZZZ=            -19.7307 XXXY=              0.8059
 XXXZ=             -0.0001 YYYX=              3.3067 YYYZ=              0.0000 ZZZX=             -0.0000
 ZZZY=              0.0000 XXYY=            -31.2381 XXZZ=            -27.1159 YYZZ=            -10.4426
 XXYZ=              0.0000 YYXZ=             -0.0000 ZZXY=              0.4765
 N-N= 7.015356600447D+01 E-N=-5.388173038906D+02  KE= 1.691037668447D+02
 No NMR shielding tensors so no spin-rotation constants.
 Leave Link  601 at Tue Jan 26 00:25:08 2021, MaxMem=  6291456000 cpu:               7.4 elap:               0.6
 (Enter /home/orgChemistry/bin/gaussian16-C.01/g16/l701.exe)
 ... and contract with generalized density number  0.
 Compute integral first derivatives.
 Leave Link  701 at Tue Jan 26 00:25:12 2021, MaxMem=  6291456000 cpu:               3.5 elap:               0.6
 (Enter /home/orgChemistry/bin/gaussian16-C.01/g16/l702.exe)
 L702 exits ... SP integral derivatives will be done elsewhere.
 Leave Link  702 at Tue Jan 26 00:25:14 2021, MaxMem=  6291456000 cpu:               0.7 elap:               0.1
 (Enter /home/orgChemistry/bin/gaussian16-C.01/g16/l703.exe)
 Integral derivatives from FoFJK, PRISM(SPDF).
 Compute integral first derivatives, UseDBF=F ICtDFT=           0.
 Calling FoFJK, ICntrl=      2127 FMM=F ISym2X=0 I1Cent= 0 IOpClX= 0 NMat=1 NMatS=1 NMatT=0.
 FoFJK:  IHMeth= 1 ICntrl=    2127 DoSepK=F KAlg= 0 I1Cent=           0 FoldK=F
 IRaf=         0 NMat=       1 IRICut=       1 DoRegI=T DoRafI=F ISym2E= 0 IDoP0=0 IntGTp=1.
 FoFCou: FMM=F IPFlag=           0 FMFlag=      100000 FMFlg1=         800
         NFxFlg=           0 DoJE=F BraDBF=F KetDBF=F FulRan=T
         wScrn=  0.000000 ICntrl=      2127 IOpCl=  0 I1Cent=           0 NGrid=           0
         NMat0=    1 NMatS0=      1 NMatT0=    0 NMatD0=    1 NMtDS0=    0 NMtDT0=    0
 Symmetry not used in FoFCou.
 Leave Link  703 at Tue Jan 26 00:25:16 2021, MaxMem=  6291456000 cpu:              28.9 elap:               1.4
 (Enter /home/orgChemistry/bin/gaussian16-C.01/g16/l716.exe)
 Dipole        =-5.42283757D-01 1.28482579D+00 7.10795338D-06
 ***** Axes restored to original set *****
 -------------------------------------------------------------------
 Center     Atomic                   Forces (Hartrees/Bohr)
 Number     Number              X              Y              Z
 -------------------------------------------------------------------
      1        6           0.031408347   -0.031052954   -0.002118669
      2        7          -0.013122261    0.019543419    0.001065995
      3        8           0.009487755    0.008275107   -0.000153018
      4        1          -0.011712786    0.007132174    0.000667324
      5        1           0.002483498   -0.017645367   -0.000586003
      6        1          -0.018544554    0.013747621    0.001124371
 -------------------------------------------------------------------
 Cartesian Forces:  Max     0.031408347 RMS     0.014355771
 Leave Link  716 at Tue Jan 26 00:25:17 2021, MaxMem=  6291456000 cpu:               0.7 elap:               0.1
 (Enter /home/orgChemistry/bin/gaussian16-C.01/g16/l103.exe)

 GradGradGradGradGradGradGradGradGradGradGradGradGradGradGradGradGradGrad
 Berny optimization.
 FormGI is forming the generalized inverse of G from B-inverse, IUseBI=4.
 Internal  Forces:  Max     0.040545188 RMS     0.017536404
 Search for a local minimum.
 Step number   1 out of a maximum of   24
 All quantities printed in internal units (Hartrees-Bohrs-Radians)
 RMS Force = .17536D-01 SwitMx=.10000D-02 MixMth= 1
 Mixed Optimization -- RFO/linear search
 Second derivative matrix not updated -- first step.
 The second derivative matrix:
                          R1        R2        R3        R4        R5
           R1           0.72566
           R2           0.00000   0.55702
           R3           0.00000   0.00000   0.35173
           R4           0.00000   0.00000   0.00000   0.42739
           R5           0.00000   0.00000   0.00000   0.00000   0.53986
           A1           0.00000   0.00000   0.00000   0.00000   0.00000
           A2           0.00000   0.00000   0.00000   0.00000   0.00000
           A3           0.00000   0.00000   0.00000   0.00000   0.00000
           A4           0.00000   0.00000   0.00000   0.00000   0.00000
           A5           0.00000   0.00000   0.00000   0.00000   0.00000
           D1           0.00000   0.00000   0.00000   0.00000   0.00000
           D2           0.00000   0.00000   0.00000   0.00000   0.00000
           D3           0.00000   0.00000   0.00000   0.00000   0.00000
           D4           0.00000   0.00000   0.00000   0.00000   0.00000
                          A1        A2        A3        A4        A5
           A1           0.25000
           A2           0.00000   0.16000
           A3           0.00000   0.00000   0.16000
           A4           0.00000   0.00000   0.00000   0.16000
           A5           0.00000   0.00000   0.00000   0.00000   0.16000
           D1           0.00000   0.00000   0.00000   0.00000   0.00000
           D2           0.00000   0.00000   0.00000   0.00000   0.00000
           D3           0.00000   0.00000   0.00000   0.00000   0.00000
           D4           0.00000   0.00000   0.00000   0.00000   0.00000
                          D1        D2        D3        D4
           D1           0.03258
           D2           0.00000   0.03258
           D3           0.00000   0.00000   0.02395
           D4           0.00000   0.00000   0.00000   0.02395
 ITU=  0
     Eigenvalues ---    0.02395   0.02827   0.03258   0.16000   0.16000
     Eigenvalues ---    0.16000   0.22000   0.35173   0.42739   0.53986
     Eigenvalues ---    0.55702   0.72566
 RFO step:  Lambda=-1.54219462D-02 EMin= 2.39516880D-02
 Linear search not attempted -- first point.
 Iteration  1 RMS(Cart)=  0.11327318 RMS(Int)=  0.00857412
 Iteration  2 RMS(Cart)=  0.00779040 RMS(Int)=  0.00000571
 Iteration  3 RMS(Cart)=  0.00000787 RMS(Int)=  0.00000011
 Iteration  4 RMS(Cart)=  0.00000000 RMS(Int)=  0.00000011
 ITry= 1 IFail=0 DXMaxC= 2.95D-01 DCOld= 1.00D+10 DXMaxT= 3.00D-01 DXLimC= 3.00D+00 Rises=F
 Variable       Old X    -DE/DX   Delta X   Delta X   Delta X     New X
                                 (Linear)    (Quad)   (Total)
    R1        2.42192  -0.04055   0.00000  -0.05471  -0.05471   2.36721
    R2        2.54513  -0.01160   0.00000  -0.02026  -0.02026   2.52488
    R3        2.05395   0.00402   0.00000   0.01096   0.01096   2.06491
    R4        1.94692  -0.01741   0.00000  -0.03932  -0.03932   1.90760
    R5        1.82744  -0.00810   0.00000  -0.01459  -0.01459   1.81285
    A1        2.09125  -0.00637   0.00000  -0.02704  -0.02704   2.06421
    A2        2.09696   0.01666   0.00000   0.09037   0.09037   2.18733
    A3        2.09497  -0.01030   0.00000  -0.06333  -0.06333   2.03165
    A4        2.10447  -0.02959   0.00000  -0.16866  -0.16866   1.93582
    A5        2.10431  -0.02902   0.00000  -0.16544  -0.16544   1.93886
    D1       -3.14159  -0.00000   0.00000  -0.00001  -0.00001   3.14159
    D2        0.00000   0.00000   0.00000   0.00000   0.00000   0.00000
    D3        3.14158   0.00000   0.00000   0.00001   0.00001   3.14159
    D4       -0.00001  -0.00000   0.00000  -0.00000  -0.00000  -0.00001
         Item               Value     Threshold  Converged?
 Maximum Force            0.040545     0.000450     NO 
 RMS     Force            0.017536     0.000300     NO 
 Maximum Displacement     0.295013     0.001800     NO 
 RMS     Displacement     0.115724     0.001200     NO 
 Predicted change in Energy=-8.281649D-03
 Lowest energy point so far.  Saving SCF results.
 GradGradGradGradGradGradGradGradGradGradGradGradGradGradGradGradGradGrad

 Leave Link  103 at Tue Jan 26 00:25:17 2021, MaxMem=  6291456000 cpu:               2.2 elap:               0.1
 (Enter /home/orgChemistry/bin/gaussian16-C.01/g16/l202.exe)
                          Input orientation:                          
 ---------------------------------------------------------------------
 Center     Atomic      Atomic             Coordinates (Angstroms)
 Number     Number       Type             X           Y           Z
 ---------------------------------------------------------------------
      1          6           0       -2.429236    0.741436   -0.022453
      2          7           0       -1.231334    0.379715   -0.080560
      3          8           0       -2.693496    2.050316    0.024245
      4          1           0       -3.291695    0.070686   -0.006281
      5          1           0       -3.638418    2.210381    0.066622
      6          1           0       -1.159913   -0.626748   -0.111169
 ---------------------------------------------------------------------
                    Distance matrix (angstroms):
                    1          2          3          4          5
     1  C    0.000000
     2  N    1.252673   0.000000
     3  O    1.336106   2.222569   0.000000
     4  H    1.092704   2.084732   2.068262   0.000000
     5  H    1.904693   3.027715   0.959319   2.168830   0.000000
     6  H    1.868416   1.009458   3.088185   2.245420   3.771458
                    6
     6  H    0.000000
 Stoichiometry    CH3NO
 Framework group  C1[X(CH3NO)]
 Deg. of freedom    12
 Full point group                 C1      NOp   1
 RotChk:  IX=2 Diff= 1.07D-02
 Largest Abelian subgroup         C1      NOp   1
 Largest concise Abelian subgroup C1      NOp   1
                         Standard orientation:                         
 ---------------------------------------------------------------------
 Center     Atomic      Atomic             Coordinates (Angstroms)
 Number     Number       Type             X           Y           Z
 ---------------------------------------------------------------------
      1          6           0        0.088482    0.371983    0.000001
      2          7           0        1.137371   -0.312868    0.000000
      3          8           0       -1.084731   -0.267353   -0.000001
      4          1           0        0.046857    1.463894   -0.000003
      5          1           0       -1.816120    0.353424    0.000004
      6          1           0        1.954617    0.279681   -0.000002
 ---------------------------------------------------------------------
 Rotational constants (GHZ):          78.4409232          11.4326561           9.9783285
 Leave Link  202 at Tue Jan 26 00:25:17 2021, MaxMem=  6291456000 cpu:               0.8 elap:               0.1
 (Enter /home/orgChemistry/bin/gaussian16-C.01/g16/l301.exe)
 Standard basis: 6-311++G(3df,3pd) (5D, 7F)
 Ernie: Thresh=  0.10000D-02 Tol=  0.10000D-05 Strict=F.
 There are   192 symmetry adapted cartesian basis functions of A   symmetry.
 There are   171 symmetry adapted basis functions of A   symmetry.
   171 basis functions,   237 primitive gaussians,   192 cartesian basis functions
    12 alpha electrons       12 beta electrons
       nuclear repulsion energy        71.4788663800 Hartrees.
 IExCor=  402 DFT=T Ex+Corr=B3LYP ExCW=0 ScaHFX=  0.200000
 ScaDFX=  0.800000  0.720000  1.000000  0.810000 ScalE2=  1.000000  1.000000
 IRadAn=      5 IRanWt=     -1 IRanGd=            0 ICorTp=0 IEmpDi=  4
 NAtoms=    6 NActive=    6 NUniq=    6 SFac= 1.00D+00 NAtFMM=   60 NAOKFM=F Big=F
 Integral buffers will be    131072 words long.
 Raffenetti 2 integral format.
 Two-electron integral symmetry is turned on.
 Leave Link  301 at Tue Jan 26 00:25:17 2021, MaxMem=  6291456000 cpu:               1.4 elap:               0.1
 (Enter /home/orgChemistry/bin/gaussian16-C.01/g16/l302.exe)
 NPDir=0 NMtPBC=     1 NCelOv=     1 NCel=       1 NClECP=     1 NCelD=      1
         NCelK=      1 NCelE2=     1 NClLst=     1 CellRange=     0.0.
 One-electron integrals computed using PRISM.
 One-electron integral symmetry used in STVInt
 NBasis=   171 RedAO= T EigKep=  1.95D-04  NBF=   171
 NBsUse=   171 1.00D-06 EigRej= -1.00D+00 NBFU=   171
 Precomputing XC quadrature grid using
 IXCGrd= 4 IRadAn=           5 IRanWt=          -1 IRanGd=           0 AccXCQ= 0.00D+00.
 Generated NRdTot=       0 NPtTot=           0 NUsed=           0 NTot=          32
 NSgBfM=   192   192   192   192   192 MxSgAt=     6 MxSgA2=     6.
 Leave Link  302 at Tue Jan 26 00:25:17 2021, MaxMem=  6291456000 cpu:               3.2 elap:               0.2
 (Enter /home/orgChemistry/bin/gaussian16-C.01/g16/l303.exe)
 DipDrv:  MaxL=1.
 Leave Link  303 at Tue Jan 26 00:25:18 2021, MaxMem=  6291456000 cpu:               0.6 elap:               0.1
 (Enter /home/orgChemistry/bin/gaussian16-C.01/g16/l401.exe)
 Initial guess from the checkpoint file:  "file_name.chk"
 B after Tr=    -0.000000    0.000000    0.000000
         Rot=    0.999997    0.000000   -0.000000   -0.002236 Ang=   0.26 deg.
 Guess basis will be translated and rotated to current coordinates.
 JPrj=2 DoOrth=T DoCkMO=T.
 Generating alternative initial guess.
 ExpMin= 3.60D-02 ExpMax= 8.59D+03 ExpMxC= 1.30D+03 IAcc=3 IRadAn=         5 AccDes= 0.00D+00
 Harris functional with IExCor=  402 and IRadAn=       5 diagonalized for initial guess.
 HarFok:  IExCor=  402 AccDes= 0.00D+00 IRadAn=         5 IDoV= 1 UseB2=F ITyADJ=14
 ICtDFT=  3500011 ScaDFX=  1.000000  1.000000  1.000000  1.000000
 FoFCou: FMM=F IPFlag=           0 FMFlag=      100000 FMFlg1=           0
         NFxFlg=           0 DoJE=T BraDBF=F KetDBF=T FulRan=T
         wScrn=  0.000000 ICntrl=       500 IOpCl=  0 I1Cent=   200000004 NGrid=           0
         NMat0=    1 NMatS0=      1 NMatT0=    0 NMatD0=    1 NMtDS0=    0 NMtDT0=    0
 Petite list used in FoFCou.
 Harris En= -169.962257827260    
 Leave Link  401 at Tue Jan 26 00:25:18 2021, MaxMem=  6291456000 cpu:               7.9 elap:               0.4
 (Enter /home/orgChemistry/bin/gaussian16-C.01/g16/l502.exe)
 Keep R1 ints in memory in canonical form, NReq=132662971.
 FoFCou: FMM=F IPFlag=           0 FMFlag=           0 FMFlg1=           0
         NFxFlg=           0 DoJE=F BraDBF=F KetDBF=F FulRan=T
         wScrn=  0.000000 ICntrl=       600 IOpCl=  0 I1Cent=           0 NGrid=           0
         NMat0=    1 NMatS0=  14706 NMatT0=    0 NMatD0=    1 NMtDS0=    0 NMtDT0=    0
 Symmetry not used in FoFCou.
 Two-electron integral symmetry not used.
 Closed shell SCF:
 Using DIIS extrapolation, IDIIS=  1040.
 NGot=  6291456000 LenX=  6183235241 LenY=  6183197936
 Requested convergence on RMS density matrix=1.00D-08 within 128 cycles.
 Requested convergence on MAX density matrix=1.00D-06.
 Requested convergence on             energy=1.00D-06.
 No special actions if energy rises.

 Cycle   1  Pass 1  IDiag  1:
 E= -169.932840539607    
 DIIS: error= 9.35D-03 at cycle   1 NSaved=   1.
 NSaved= 1 IEnMin= 1 EnMin= -169.932840539607     IErMin= 1 ErrMin= 9.35D-03
 ErrMax= 9.35D-03  0.00D+00 EMaxC= 1.00D-01 BMatC= 1.19D-02 BMatP= 1.19D-02
 IDIUse=3 WtCom= 9.07D-01 WtEn= 9.35D-02
 Coeff-Com:  0.100D+01
 Coeff-En:   0.100D+01
 Coeff:      0.100D+01
 Gap=     0.467 Goal=   None    Shift=    0.000
 GapD=    0.467 DampG=2.000 DampE=1.000 DampFc=2.0000 IDamp=-1.
 RMSDP=8.11D-04 MaxDP=5.10D-02              OVMax= 3.15D-02

 Cycle   2  Pass 1  IDiag  1:
 E= -169.937807399555     Delta-E=       -0.004966859948 Rises=F Damp=F
 DIIS: error= 2.18D-03 at cycle   2 NSaved=   2.
 NSaved= 2 IEnMin= 2 EnMin= -169.937807399555     IErMin= 2 ErrMin= 2.18D-03
 ErrMax= 2.18D-03  0.00D+00 EMaxC= 1.00D-01 BMatC= 1.07D-03 BMatP= 1.19D-02
 IDIUse=3 WtCom= 9.78D-01 WtEn= 2.18D-02
 Coeff-Com:  0.107D+00 0.893D+00
 Coeff-En:   0.000D+00 0.100D+01
 Coeff:      0.105D+00 0.895D+00
 Gap=     0.249 Goal=   None    Shift=    0.000
 RMSDP=3.29D-04 MaxDP=1.26D-02 DE=-4.97D-03 OVMax= 2.82D-02

 Cycle   3  Pass 1  IDiag  1:
 E= -169.936783837719     Delta-E=        0.001023561836 Rises=F Damp=F
 DIIS: error= 3.53D-03 at cycle   3 NSaved=   3.
 NSaved= 3 IEnMin= 2 EnMin= -169.937807399555     IErMin= 2 ErrMin= 2.18D-03
 ErrMax= 3.53D-03  0.00D+00 EMaxC= 1.00D-01 BMatC= 2.28D-03 BMatP= 1.07D-03
 IDIUse=3 WtCom= 1.44D-01 WtEn= 8.56D-01
 Coeff-Com: -0.489D-02 0.598D+00 0.407D+00
 Coeff-En:   0.000D+00 0.651D+00 0.349D+00
 Coeff:     -0.705D-03 0.644D+00 0.357D+00
 Gap=     0.260 Goal=   None    Shift=    0.000
 RMSDP=1.73D-04 MaxDP=6.48D-03 DE= 1.02D-03 OVMax= 1.77D-02

 Cycle   4  Pass 1  IDiag  1:
 E= -169.938657549181     Delta-E=       -0.001873711462 Rises=F Damp=F
 DIIS: error= 6.12D-04 at cycle   4 NSaved=   4.
 NSaved= 4 IEnMin= 4 EnMin= -169.938657549181     IErMin= 4 ErrMin= 6.12D-04
 ErrMax= 6.12D-04  0.00D+00 EMaxC= 1.00D-01 BMatC= 5.97D-05 BMatP= 1.07D-03
 IDIUse=3 WtCom= 9.94D-01 WtEn= 6.12D-03
 Coeff-Com: -0.741D-02 0.330D+00 0.182D+00 0.496D+00
 Coeff-En:   0.000D+00 0.000D+00 0.000D+00 0.100D+01
 Coeff:     -0.736D-02 0.328D+00 0.180D+00 0.499D+00
 Gap=     0.262 Goal=   None    Shift=    0.000
 RMSDP=3.31D-05 MaxDP=1.04D-03 DE=-1.87D-03 OVMax= 1.88D-03

 Cycle   5  Pass 1  IDiag  1:
 E= -169.938705824624     Delta-E=       -0.000048275443 Rises=F Damp=F
 DIIS: error= 1.06D-04 at cycle   5 NSaved=   5.
 NSaved= 5 IEnMin= 5 EnMin= -169.938705824624     IErMin= 5 ErrMin= 1.06D-04
 ErrMax= 1.06D-04  0.00D+00 EMaxC= 1.00D-01 BMatC= 1.94D-06 BMatP= 5.97D-05
 IDIUse=3 WtCom= 9.99D-01 WtEn= 1.06D-03
 Coeff-Com: -0.261D-02 0.897D-01 0.433D-01 0.215D+00 0.655D+00
 Coeff-En:   0.000D+00 0.000D+00 0.000D+00 0.000D+00 0.100D+01
 Coeff:     -0.260D-02 0.896D-01 0.433D-01 0.215D+00 0.655D+00
 Gap=     0.262 Goal=   None    Shift=    0.000
 RMSDP=6.20D-06 MaxDP=2.26D-04 DE=-4.83D-05 OVMax= 3.92D-04

 Cycle   6  Pass 1  IDiag  1:
 E= -169.938706847272     Delta-E=       -0.000001022648 Rises=F Damp=F
 DIIS: error= 4.93D-05 at cycle   6 NSaved=   6.
 NSaved= 6 IEnMin= 6 EnMin= -169.938706847272     IErMin= 6 ErrMin= 4.93D-05
 ErrMax= 4.93D-05  0.00D+00 EMaxC= 1.00D-01 BMatC= 5.11D-07 BMatP= 1.94D-06
 IDIUse=1 WtCom= 1.00D+00 WtEn= 0.00D+00
 Coeff-Com: -0.503D-03 0.839D-02 0.518D-03 0.602D-01 0.389D+00 0.543D+00
 Coeff:     -0.503D-03 0.839D-02 0.518D-03 0.602D-01 0.389D+00 0.543D+00
 Gap=     0.262 Goal=   None    Shift=    0.000
 RMSDP=2.38D-06 MaxDP=1.11D-04 DE=-1.02D-06 OVMax= 2.02D-04

 Cycle   7  Pass 1  IDiag  1:
 E= -169.938707210207     Delta-E=       -0.000000362935 Rises=F Damp=F
 DIIS: error= 9.65D-06 at cycle   7 NSaved=   7.
 NSaved= 7 IEnMin= 7 EnMin= -169.938707210207     IErMin= 7 ErrMin= 9.65D-06
 ErrMax= 9.65D-06  0.00D+00 EMaxC= 1.00D-01 BMatC= 1.16D-08 BMatP= 5.11D-07
 IDIUse=1 WtCom= 1.00D+00 WtEn= 0.00D+00
 Coeff-Com: -0.114D-04-0.325D-02-0.318D-02 0.732D-02 0.102D+00 0.206D+00
 Coeff-Com:  0.691D+00
 Coeff:     -0.114D-04-0.325D-02-0.318D-02 0.732D-02 0.102D+00 0.206D+00
 Coeff:      0.691D+00
 Gap=     0.262 Goal=   None    Shift=    0.000
 RMSDP=4.66D-07 MaxDP=1.10D-05 DE=-3.63D-07 OVMax= 2.68D-05

 Cycle   8  Pass 1  IDiag  1:
 E= -169.938707219258     Delta-E=       -0.000000009052 Rises=F Damp=F
 DIIS: error= 6.13D-07 at cycle   8 NSaved=   8.
 NSaved= 8 IEnMin= 8 EnMin= -169.938707219258     IErMin= 8 ErrMin= 6.13D-07
 ErrMax= 6.13D-07  0.00D+00 EMaxC= 1.00D-01 BMatC= 6.63D-11 BMatP= 1.16D-08
 IDIUse=1 WtCom= 1.00D+00 WtEn= 0.00D+00
 Coeff-Com:  0.176D-04-0.102D-02-0.706D-03-0.107D-02 0.541D-02 0.174D-01
 Coeff-Com:  0.933D-01 0.887D+00
 Coeff:      0.176D-04-0.102D-02-0.706D-03-0.107D-02 0.541D-02 0.174D-01
 Coeff:      0.933D-01 0.887D+00
 Gap=     0.262 Goal=   None    Shift=    0.000
 RMSDP=5.91D-08 MaxDP=1.49D-06 DE=-9.05D-09 OVMax= 3.30D-06

 Cycle   9  Pass 1  IDiag  1:
 E= -169.938707219316     Delta-E=       -0.000000000057 Rises=F Damp=F
 DIIS: error= 1.53D-07 at cycle   9 NSaved=   9.
 NSaved= 9 IEnMin= 9 EnMin= -169.938707219316     IErMin= 9 ErrMin= 1.53D-07
 ErrMax= 1.53D-07  0.00D+00 EMaxC= 1.00D-01 BMatC= 2.11D-12 BMatP= 6.63D-11
 IDIUse=1 WtCom= 1.00D+00 WtEn= 0.00D+00
 Coeff-Com:  0.147D-05-0.255D-04-0.250D-04-0.133D-03-0.100D-02-0.230D-02
 Coeff-Com: -0.265D-02 0.974D-01 0.909D+00
 Coeff:      0.147D-05-0.255D-04-0.250D-04-0.133D-03-0.100D-02-0.230D-02
 Coeff:     -0.265D-02 0.974D-01 0.909D+00
 Gap=     0.262 Goal=   None    Shift=    0.000
 RMSDP=1.11D-08 MaxDP=3.95D-07 DE=-5.72D-11 OVMax= 5.76D-07

 Cycle  10  Pass 1  IDiag  1:
 E= -169.938707219316     Delta-E=       -0.000000000001 Rises=F Damp=F
 DIIS: error= 3.13D-08 at cycle  10 NSaved=  10.
 NSaved=10 IEnMin=10 EnMin= -169.938707219316     IErMin=10 ErrMin= 3.13D-08
 ErrMax= 3.13D-08  0.00D+00 EMaxC= 1.00D-01 BMatC= 9.55D-14 BMatP= 2.11D-12
 IDIUse=1 WtCom= 1.00D+00 WtEn= 0.00D+00
 Coeff-Com: -0.196D-06 0.216D-04 0.104D-04 0.218D-04-0.358D-03-0.850D-03
 Coeff-Com: -0.290D-02-0.106D-01 0.159D+00 0.856D+00
 Coeff:     -0.196D-06 0.216D-04 0.104D-04 0.218D-04-0.358D-03-0.850D-03
 Coeff:     -0.290D-02-0.106D-01 0.159D+00 0.856D+00
 Gap=     0.262 Goal=   None    Shift=    0.000
 RMSDP=1.91D-09 MaxDP=3.90D-08 DE=-7.39D-13 OVMax= 1.31D-07

 SCF Done:  E(RB3LYP) =  -169.938707219     A.U. after   10 cycles
            NFock= 10  Conv=0.19D-08     -V/T= 2.0035
 KE= 1.693453927231D+02 PE=-5.416136423852D+02 EE= 1.308506760628D+02
 Leave Link  502 at Tue Jan 26 00:25:21 2021, MaxMem=  6291456000 cpu:              38.4 elap:               3.2
 (Enter /home/orgChemistry/bin/gaussian16-C.01/g16/l701.exe)
 ... and contract with generalized density number  0.
 Compute integral first derivatives.
 Leave Link  701 at Tue Jan 26 00:25:22 2021, MaxMem=  6291456000 cpu:               7.9 elap:               0.4
 (Enter /home/orgChemistry/bin/gaussian16-C.01/g16/l702.exe)
 L702 exits ... SP integral derivatives will be done elsewhere.
 Leave Link  702 at Tue Jan 26 00:25:22 2021, MaxMem=  6291456000 cpu:               0.7 elap:               0.1
 (Enter /home/orgChemistry/bin/gaussian16-C.01/g16/l703.exe)
 Integral derivatives from FoFJK, PRISM(SPDF).
 Compute integral first derivatives, UseDBF=F ICtDFT=           0.
 Calling FoFJK, ICntrl=      2127 FMM=F ISym2X=0 I1Cent= 0 IOpClX= 0 NMat=1 NMatS=1 NMatT=0.
 FoFJK:  IHMeth= 1 ICntrl=    2127 DoSepK=F KAlg= 0 I1Cent=           0 FoldK=F
 IRaf=         0 NMat=       1 IRICut=       1 DoRegI=T DoRafI=F ISym2E= 0 IDoP0=0 IntGTp=1.
 FoFCou: FMM=F IPFlag=           0 FMFlag=      100000 FMFlg1=         800
         NFxFlg=           0 DoJE=F BraDBF=F KetDBF=F FulRan=T
         wScrn=  0.000000 ICntrl=      2127 IOpCl=  0 I1Cent=           0 NGrid=           0
         NMat0=    1 NMatS0=      1 NMatT0=    0 NMatD0=    1 NMtDS0=    0 NMtDT0=    0
 Symmetry not used in FoFCou.
 Leave Link  703 at Tue Jan 26 00:25:23 2021, MaxMem=  6291456000 cpu:              22.8 elap:               1.0
 (Enter /home/orgChemistry/bin/gaussian16-C.01/g16/l716.exe)
 Dipole        =-5.14434228D-01 1.38376959D+00 1.58548911D-06
 ***** Axes restored to original set *****
 -------------------------------------------------------------------
 Center     Atomic                   Forces (Hartrees/Bohr)
 Number     Number              X              Y              Z
 -------------------------------------------------------------------
      1        6           0.003608683   -0.006785390   -0.000331514
      2        7           0.006483247   -0.002691467   -0.000334779
      3        8          -0.006309944    0.012237406    0.000590644
      4        1          -0.002399280    0.001971573    0.000150572
      5        1          -0.002383111   -0.000121441    0.000092447
      6        1           0.001000405   -0.004610680   -0.000167370
 -------------------------------------------------------------------
 Cartesian Forces:  Max     0.012237406 RMS     0.004321374
 Leave Link  716 at Tue Jan 26 00:25:23 2021, MaxMem=  6291456000 cpu:               0.6 elap:               0.1
 (Enter /home/orgChemistry/bin/gaussian16-C.01/g16/l103.exe)

 GradGradGradGradGradGradGradGradGradGradGradGradGradGradGradGradGradGrad
 Berny optimization.
 Using GEDIIS/GDIIS optimizer.
 FormGI is forming the generalized inverse of G from B-inverse, IUseBI=4.
 Internal  Forces:  Max     0.013612305 RMS     0.005599486
 Search for a local minimum.
 Step number   2 out of a maximum of   24
 All quantities printed in internal units (Hartrees-Bohrs-Radians)
 RMS Force = .55995D-02 SwitMx=.10000D-02 MixMth= 1
 Mixed Optimization -- RFO/linear search
 Update second derivatives using D2CorX and points    1    2
 DE= -7.59D-03 DEPred=-8.28D-03 R= 9.17D-01
 TightC=F SS=  1.41D+00  RLast= 2.72D-01 DXNew= 5.0454D-01 8.1613D-01
 Trust test= 9.17D-01 RLast= 2.72D-01 DXMaxT set to 5.05D-01
 The second derivative matrix:
                          R1        R2        R3        R4        R5
           R1           0.76713
           R2           0.04544   0.58696
           R3           0.00055  -0.00210   0.35137
           R4           0.02057   0.02076   0.00003   0.43744
           R5           0.00989   0.00986  -0.00000   0.00482   0.54217
           A1           0.02757   0.01811  -0.00128   0.01259   0.00598
           A2          -0.01452  -0.01626  -0.00024  -0.00724  -0.00348
           A3          -0.01982  -0.00378   0.00218  -0.00822  -0.00384
           A4           0.01903   0.02626   0.00098   0.00993   0.00481
           A5           0.01198   0.02237   0.00141   0.00677   0.00331
           D1           0.00000   0.00000  -0.00000   0.00000   0.00000
           D2          -0.00000  -0.00000   0.00000  -0.00000  -0.00000
           D3          -0.00000  -0.00000   0.00000  -0.00000  -0.00000
           D4           0.00000   0.00000  -0.00000   0.00000   0.00000
                          A1        A2        A3        A4        A5
           A1           0.26096
           A2          -0.00987   0.16508
           A3          -0.00225   0.00725   0.15327
           A4           0.01595  -0.00657  -0.01397   0.16727
           A5           0.01360  -0.00404  -0.01407   0.00298   0.15916
           D1           0.00000  -0.00000  -0.00000   0.00000   0.00000
           D2          -0.00000   0.00000   0.00000  -0.00000  -0.00000
           D3          -0.00000   0.00000   0.00000  -0.00000  -0.00000
           D4           0.00000  -0.00000   0.00000   0.00000   0.00000
                          D1        D2        D3        D4
           D1           0.03258
           D2          -0.00000   0.03258
           D3          -0.00000   0.00000   0.02395
           D4           0.00000  -0.00000  -0.00000   0.02395
 ITU=  1  0
 Use linear search instead of GDIIS.
     Eigenvalues ---    0.02395   0.02867   0.03258   0.14144   0.16000
     Eigenvalues ---    0.16482   0.24038   0.35140   0.43481   0.54014
     Eigenvalues ---    0.58246   0.78550
 RFO step:  Lambda=-1.02660942D-03 EMin= 2.39516880D-02
 Quartic linear search produced a step of -0.05079.
 Iteration  1 RMS(Cart)=  0.02742234 RMS(Int)=  0.00042243
 Iteration  2 RMS(Cart)=  0.00045006 RMS(Int)=  0.00000006
 Iteration  3 RMS(Cart)=  0.00000005 RMS(Int)=  0.00000004
 ITry= 1 IFail=0 DXMaxC= 5.20D-02 DCOld= 1.00D+10 DXMaxT= 5.05D-01 DXLimC= 3.00D+00 Rises=F
 Variable       Old X    -DE/DX   Delta X   Delta X   Delta X     New X
                                 (Linear)    (Quad)   (Total)
    R1        2.36721   0.00929   0.00278   0.00581   0.00859   2.37580
    R2        2.52488   0.01361   0.00103   0.02079   0.02182   2.54669
    R3        2.06491   0.00069  -0.00056   0.00314   0.00258   2.06750
    R4        1.90760   0.00467   0.00200   0.00573   0.00773   1.91533
    R5        1.81285   0.00233   0.00074   0.00239   0.00313   1.81598
    A1        2.06421   0.00885   0.00137   0.03470   0.03607   2.10028
    A2        2.18733  -0.00129  -0.00459   0.01073   0.00614   2.19347
    A3        2.03165  -0.00756   0.00322  -0.04542  -0.04221   1.98944
    A4        1.93582   0.00128   0.00857  -0.01358  -0.00502   1.93080
    A5        1.93886  -0.00094   0.00840  -0.02626  -0.01786   1.92100
    D1        3.14159   0.00000   0.00000   0.00001   0.00001  -3.14159
    D2        0.00000  -0.00000  -0.00000  -0.00000  -0.00000  -0.00000
    D3        3.14159  -0.00000  -0.00000  -0.00000  -0.00000   3.14158
    D4       -0.00001   0.00000   0.00000   0.00001   0.00001  -0.00000
         Item               Value     Threshold  Converged?
 Maximum Force            0.013612     0.000450     NO 
 RMS     Force            0.005599     0.000300     NO 
 Maximum Displacement     0.051951     0.001800     NO 
 RMS     Displacement     0.027476     0.001200     NO 
 Predicted change in Energy=-5.301823D-04
 Lowest energy point so far.  Saving SCF results.
 GradGradGradGradGradGradGradGradGradGradGradGradGradGradGradGradGradGrad

 Leave Link  103 at Tue Jan 26 00:25:23 2021, MaxMem=  6291456000 cpu:               2.9 elap:               0.2
 (Enter /home/orgChemistry/bin/gaussian16-C.01/g16/l202.exe)
                          Input orientation:                          
 ---------------------------------------------------------------------
 Center     Atomic      Atomic             Coordinates (Angstroms)
 Number     Number       Type             X           Y           Z
 ---------------------------------------------------------------------
      1          6           0       -2.411850    0.750174   -0.022907
      2          7           0       -1.215721    0.367499   -0.081523
      3          8           0       -2.704349    2.064824    0.025080
      4          1           0       -3.290254    0.098177   -0.005582
      5          1           0       -3.656294    2.189481    0.066763
      6          1           0       -1.165626   -0.644369   -0.111428
 ---------------------------------------------------------------------
                    Distance matrix (angstroms):
                    1          2          3          4          5
     1  C    0.000000
     2  N    1.257220   0.000000
     3  O    1.347650   2.260152   0.000000
     4  H    1.094072   2.093320   2.052297   0.000000
     5  H    1.904806   3.049263   0.960977   2.124328   0.000000
     6  H    1.872341   1.013549   3.118658   2.253136   3.777020
                    6
     6  H    0.000000
 Stoichiometry    CH3NO
 Framework group  C1[X(CH3NO)]
 Deg. of freedom    12
 Full point group                 C1      NOp   1
 RotChk:  IX=0 Diff= 4.67D-03
 Largest Abelian subgroup         C1      NOp   1
 Largest concise Abelian subgroup C1      NOp   1
                         Standard orientation:                         
 ---------------------------------------------------------------------
 Center     Atomic      Atomic             Coordinates (Angstroms)
 Number     Number       Type             X           Y           Z
 ---------------------------------------------------------------------
      1          6           0        0.091292    0.358618   -0.000002
      2          7           0        1.157301   -0.307885    0.000000
      3          8           0       -1.102477   -0.266743   -0.000000
      4          1           0        0.021421    1.450457    0.000001
      5          1           0       -1.813395    0.379841    0.000006
      6          1           0        1.962925    0.307135    0.000002
 ---------------------------------------------------------------------
 Rotational constants (GHZ):          80.6076914          11.1088495           9.7633284
 Leave Link  202 at Tue Jan 26 00:25:23 2021, MaxMem=  6291456000 cpu:               0.8 elap:               0.1
 (Enter /home/orgChemistry/bin/gaussian16-C.01/g16/l301.exe)
 Standard basis: 6-311++G(3df,3pd) (5D, 7F)
 Ernie: Thresh=  0.10000D-02 Tol=  0.10000D-05 Strict=F.
 There are   192 symmetry adapted cartesian basis functions of A   symmetry.
 There are   171 symmetry adapted basis functions of A   symmetry.
   171 basis functions,   237 primitive gaussians,   192 cartesian basis functions
    12 alpha electrons       12 beta electrons
       nuclear repulsion energy        70.9911070151 Hartrees.
 IExCor=  402 DFT=T Ex+Corr=B3LYP ExCW=0 ScaHFX=  0.200000
 ScaDFX=  0.800000  0.720000  1.000000  0.810000 ScalE2=  1.000000  1.000000
 IRadAn=      5 IRanWt=     -1 IRanGd=            0 ICorTp=0 IEmpDi=  4
 NAtoms=    6 NActive=    6 NUniq=    6 SFac= 1.00D+00 NAtFMM=   60 NAOKFM=F Big=F
 Integral buffers will be    131072 words long.
 Raffenetti 2 integral format.
 Two-electron integral symmetry is turned on.
 Leave Link  301 at Tue Jan 26 00:25:23 2021, MaxMem=  6291456000 cpu:               1.5 elap:               0.1
 (Enter /home/orgChemistry/bin/gaussian16-C.01/g16/l302.exe)
 NPDir=0 NMtPBC=     1 NCelOv=     1 NCel=       1 NClECP=     1 NCelD=      1
         NCelK=      1 NCelE2=     1 NClLst=     1 CellRange=     0.0.
 One-electron integrals computed using PRISM.
 One-electron integral symmetry used in STVInt
 NBasis=   171 RedAO= T EigKep=  1.95D-04  NBF=   171
 NBsUse=   171 1.00D-06 EigRej= -1.00D+00 NBFU=   171
 Precomputing XC quadrature grid using
 IXCGrd= 4 IRadAn=           5 IRanWt=          -1 IRanGd=           0 AccXCQ= 0.00D+00.
 Generated NRdTot=       0 NPtTot=           0 NUsed=           0 NTot=          32
 NSgBfM=   192   192   192   192   192 MxSgAt=     6 MxSgA2=     6.
 Leave Link  302 at Tue Jan 26 00:25:24 2021, MaxMem=  6291456000 cpu:               6.5 elap:               0.3
 (Enter /home/orgChemistry/bin/gaussian16-C.01/g16/l303.exe)
 DipDrv:  MaxL=1.
 Leave Link  303 at Tue Jan 26 00:25:24 2021, MaxMem=  6291456000 cpu:               2.7 elap:               0.2
 (Enter /home/orgChemistry/bin/gaussian16-C.01/g16/l401.exe)
 Initial guess from the checkpoint file:  "file_name.chk"
 B after Tr=    -0.000000   -0.000000   -0.000000
         Rot=    0.999999    0.000000   -0.000000   -0.001083 Ang=   0.12 deg.
 Guess basis will be translated and rotated to current coordinates.
 JPrj=2 DoOrth=T DoCkMO=T.
 Generating alternative initial guess.
 ExpMin= 3.60D-02 ExpMax= 8.59D+03 ExpMxC= 1.30D+03 IAcc=3 IRadAn=         5 AccDes= 0.00D+00
 Harris functional with IExCor=  402 and IRadAn=       5 diagonalized for initial guess.
 HarFok:  IExCor=  402 AccDes= 0.00D+00 IRadAn=         5 IDoV= 1 UseB2=F ITyADJ=14
 ICtDFT=  3500011 ScaDFX=  1.000000  1.000000  1.000000  1.000000
 FoFCou: FMM=F IPFlag=           0 FMFlag=      100000 FMFlg1=           0
         NFxFlg=           0 DoJE=T BraDBF=F KetDBF=T FulRan=T
         wScrn=  0.000000 ICntrl=       500 IOpCl=  0 I1Cent=   200000004 NGrid=           0
         NMat0=    1 NMatS0=      1 NMatT0=    0 NMatD0=    1 NMtDS0=    0 NMtDT0=    0
 Petite list used in FoFCou.
 Harris En= -169.961017801090    
 Leave Link  401 at Tue Jan 26 00:25:24 2021, MaxMem=  6291456000 cpu:               6.8 elap:               0.3
 (Enter /home/orgChemistry/bin/gaussian16-C.01/g16/l502.exe)
 Keep R1 ints in memory in canonical form, NReq=132662971.
 FoFCou: FMM=F IPFlag=           0 FMFlag=           0 FMFlg1=           0
         NFxFlg=           0 DoJE=F BraDBF=F KetDBF=F FulRan=T
         wScrn=  0.000000 ICntrl=       600 IOpCl=  0 I1Cent=           0 NGrid=           0
         NMat0=    1 NMatS0=  14706 NMatT0=    0 NMatD0=    1 NMtDS0=    0 NMtDT0=    0
 Symmetry not used in FoFCou.
 Two-electron integral symmetry not used.
 Closed shell SCF:
 Using DIIS extrapolation, IDIIS=  1040.
 NGot=  6291456000 LenX=  6183235241 LenY=  6183197936
 Requested convergence on RMS density matrix=1.00D-08 within 128 cycles.
 Requested convergence on MAX density matrix=1.00D-06.
 Requested convergence on             energy=1.00D-06.
 No special actions if energy rises.

 Cycle   1  Pass 1  IDiag  1:
 E= -169.938641488819    
 DIIS: error= 1.77D-03 at cycle   1 NSaved=   1.
 NSaved= 1 IEnMin= 1 EnMin= -169.938641488819     IErMin= 1 ErrMin= 1.77D-03
 ErrMax= 1.77D-03  0.00D+00 EMaxC= 1.00D-01 BMatC= 9.25D-04 BMatP= 9.25D-04
 IDIUse=3 WtCom= 9.82D-01 WtEn= 1.77D-02
 Coeff-Com:  0.100D+01
 Coeff-En:   0.100D+01
 Coeff:      0.100D+01
 Gap=     0.460 Goal=   None    Shift=    0.000
 GapD=    0.460 DampG=2.000 DampE=1.000 DampFc=2.0000 IDamp=-1.
 RMSDP=1.84D-04 MaxDP=4.35D-03              OVMax= 7.00D-03

 Cycle   2  Pass 1  IDiag  1:
 E= -169.939193193197     Delta-E=       -0.000551704378 Rises=F Damp=F
 DIIS: error= 3.92D-04 at cycle   2 NSaved=   2.
 NSaved= 2 IEnMin= 2 EnMin= -169.939193193197     IErMin= 2 ErrMin= 3.92D-04
 ErrMax= 3.92D-04  0.00D+00 EMaxC= 1.00D-01 BMatC= 2.92D-05 BMatP= 9.25D-04
 IDIUse=3 WtCom= 9.96D-01 WtEn= 3.92D-03
 Coeff-Com:  0.193D-01 0.981D+00
 Coeff-En:   0.000D+00 0.100D+01
 Coeff:      0.192D-01 0.981D+00
 Gap=     0.261 Goal=   None    Shift=    0.000
 RMSDP=4.82D-05 MaxDP=1.81D-03 DE=-5.52D-04 OVMax= 4.40D-03

 Cycle   3  Pass 1  IDiag  1:
 E= -169.939149133155     Delta-E=        0.000044060042 Rises=F Damp=F
 DIIS: error= 7.58D-04 at cycle   3 NSaved=   3.
 NSaved= 3 IEnMin= 2 EnMin= -169.939193193197     IErMin= 2 ErrMin= 3.92D-04
 ErrMax= 7.58D-04  0.00D+00 EMaxC= 1.00D-01 BMatC= 8.31D-05 BMatP= 2.92D-05
 IDIUse=3 WtCom= 2.66D-01 WtEn= 7.34D-01
 Coeff-Com: -0.171D-01 0.642D+00 0.375D+00
 Coeff-En:   0.000D+00 0.710D+00 0.290D+00
 Coeff:     -0.455D-02 0.692D+00 0.313D+00
 Gap=     0.262 Goal=   None    Shift=    0.000
 RMSDP=2.87D-05 MaxDP=9.24D-04 DE= 4.41D-05 OVMax= 2.97D-03

 Cycle   4  Pass 1  IDiag  1:
 E= -169.939215804569     Delta-E=       -0.000066671414 Rises=F Damp=F
 DIIS: error= 9.74D-05 at cycle   4 NSaved=   4.
 NSaved= 4 IEnMin= 4 EnMin= -169.939215804569     IErMin= 4 ErrMin= 9.74D-05
 ErrMax= 9.74D-05  0.00D+00 EMaxC= 1.00D-01 BMatC= 1.54D-06 BMatP= 2.92D-05
 IDIUse=1 WtCom= 1.00D+00 WtEn= 0.00D+00
 Coeff-Com: -0.862D-02 0.259D+00 0.779D-01 0.672D+00
 Coeff:     -0.862D-02 0.259D+00 0.779D-01 0.672D+00
 Gap=     0.262 Goal=   None    Shift=    0.000
 RMSDP=5.04D-06 MaxDP=1.85D-04 DE=-6.67D-05 OVMax= 4.44D-04

 Cycle   5  Pass 1  IDiag  1:
 E= -169.939216675152     Delta-E=       -0.000000870583 Rises=F Damp=F
 DIIS: error= 5.05D-05 at cycle   5 NSaved=   5.
 NSaved= 5 IEnMin= 5 EnMin= -169.939216675152     IErMin= 5 ErrMin= 5.05D-05
 ErrMax= 5.05D-05  0.00D+00 EMaxC= 1.00D-01 BMatC= 3.92D-07 BMatP= 1.54D-06
 IDIUse=1 WtCom= 1.00D+00 WtEn= 0.00D+00
 Coeff-Com: -0.256D-02 0.468D-01-0.194D-01 0.452D+00 0.523D+00
 Coeff:     -0.256D-02 0.468D-01-0.194D-01 0.452D+00 0.523D+00
 Gap=     0.262 Goal=   None    Shift=    0.000
 RMSDP=1.86D-06 MaxDP=8.75D-05 DE=-8.71D-07 OVMax= 1.66D-04

 Cycle   6  Pass 1  IDiag  1:
 E= -169.939216942720     Delta-E=       -0.000000267568 Rises=F Damp=F
 DIIS: error= 6.62D-06 at cycle   6 NSaved=   6.
 NSaved= 6 IEnMin= 6 EnMin= -169.939216942720     IErMin= 6 ErrMin= 6.62D-06
 ErrMax= 6.62D-06  0.00D+00 EMaxC= 1.00D-01 BMatC= 5.25D-09 BMatP= 3.92D-07
 IDIUse=1 WtCom= 1.00D+00 WtEn= 0.00D+00
 Coeff-Com: -0.101D-03-0.657D-02-0.153D-01 0.110D+00 0.169D+00 0.743D+00
 Coeff:     -0.101D-03-0.657D-02-0.153D-01 0.110D+00 0.169D+00 0.743D+00
 Gap=     0.262 Goal=   None    Shift=    0.000
 RMSDP=3.54D-07 MaxDP=1.20D-05 DE=-2.68D-07 OVMax= 1.87D-05

 Cycle   7  Pass 1  IDiag  1:
 E= -169.939216946104     Delta-E=       -0.000000003384 Rises=F Damp=F
 DIIS: error= 2.17D-06 at cycle   7 NSaved=   7.
 NSaved= 7 IEnMin= 7 EnMin= -169.939216946104     IErMin= 7 ErrMin= 2.17D-06
 ErrMax= 2.17D-06  0.00D+00 EMaxC= 1.00D-01 BMatC= 6.09D-10 BMatP= 5.25D-09
 IDIUse=1 WtCom= 1.00D+00 WtEn= 0.00D+00
 Coeff-Com:  0.166D-04-0.401D-02-0.657D-02 0.385D-01 0.620D-01 0.364D+00
 Coeff-Com:  0.546D+00
 Coeff:      0.166D-04-0.401D-02-0.657D-02 0.385D-01 0.620D-01 0.364D+00
 Coeff:      0.546D+00
 Gap=     0.262 Goal=   None    Shift=    0.000
 RMSDP=1.18D-07 MaxDP=4.81D-06 DE=-3.38D-09 OVMax= 6.67D-06

 Cycle   8  Pass 1  IDiag  1:
 E= -169.939216946678     Delta-E=       -0.000000000575 Rises=F Damp=F
 DIIS: error= 2.78D-07 at cycle   8 NSaved=   8.
 NSaved= 8 IEnMin= 8 EnMin= -169.939216946678     IErMin= 8 ErrMin= 2.78D-07
 ErrMax= 2.78D-07  0.00D+00 EMaxC= 1.00D-01 BMatC= 9.21D-12 BMatP= 6.09D-10
 IDIUse=1 WtCom= 1.00D+00 WtEn= 0.00D+00
 Coeff-Com:  0.170D-04-0.935D-03-0.855D-03 0.205D-02 0.440D-02 0.474D-01
 Coeff-Com:  0.139D+00 0.809D+00
 Coeff:      0.170D-04-0.935D-03-0.855D-03 0.205D-02 0.440D-02 0.474D-01
 Coeff:      0.139D+00 0.809D+00
 Gap=     0.262 Goal=   None    Shift=    0.000
 RMSDP=1.63D-08 MaxDP=3.47D-07 DE=-5.75D-10 OVMax= 8.97D-07

 Cycle   9  Pass 1  IDiag  1:
 E= -169.939216946685     Delta-E=       -0.000000000007 Rises=F Damp=F
 DIIS: error= 3.87D-08 at cycle   9 NSaved=   9.
 NSaved= 9 IEnMin= 9 EnMin= -169.939216946685     IErMin= 9 ErrMin= 3.87D-08
 ErrMax= 3.87D-08  0.00D+00 EMaxC= 1.00D-01 BMatC= 1.34D-13 BMatP= 9.21D-12
 IDIUse=1 WtCom= 1.00D+00 WtEn= 0.00D+00
 Coeff-Com:  0.155D-05-0.169D-04 0.448D-04-0.554D-03-0.744D-03-0.125D-02
 Coeff-Com:  0.104D-01 0.136D+00 0.857D+00
 Coeff:      0.155D-05-0.169D-04 0.448D-04-0.554D-03-0.744D-03-0.125D-02
 Coeff:      0.104D-01 0.136D+00 0.857D+00
 Gap=     0.262 Goal=   None    Shift=    0.000
 RMSDP=2.57D-09 MaxDP=6.67D-08 DE=-6.79D-12 OVMax= 1.47D-07

 SCF Done:  E(RB3LYP) =  -169.939216947     A.U. after    9 cycles
            NFock=  9  Conv=0.26D-08     -V/T= 2.0039
 KE= 1.692845733230D+02 PE=-5.405801525410D+02 EE= 1.303652552562D+02
 Leave Link  502 at Tue Jan 26 00:25:27 2021, MaxMem=  6291456000 cpu:              37.2 elap:               3.0
 (Enter /home/orgChemistry/bin/gaussian16-C.01/g16/l701.exe)
 ... and contract with generalized density number  0.
 Compute integral first derivatives.
 Leave Link  701 at Tue Jan 26 00:25:27 2021, MaxMem=  6291456000 cpu:               3.7 elap:               0.2
 (Enter /home/orgChemistry/bin/gaussian16-C.01/g16/l702.exe)
 L702 exits ... SP integral derivatives will be done elsewhere.
 Leave Link  702 at Tue Jan 26 00:25:27 2021, MaxMem=  6291456000 cpu:               0.6 elap:               0.1
 (Enter /home/orgChemistry/bin/gaussian16-C.01/g16/l703.exe)
 Integral derivatives from FoFJK, PRISM(SPDF).
 Compute integral first derivatives, UseDBF=F ICtDFT=           0.
 Calling FoFJK, ICntrl=      2127 FMM=F ISym2X=0 I1Cent= 0 IOpClX= 0 NMat=1 NMatS=1 NMatT=0.
 FoFJK:  IHMeth= 1 ICntrl=    2127 DoSepK=F KAlg= 0 I1Cent=           0 FoldK=F
 IRaf=         0 NMat=       1 IRICut=       1 DoRegI=T DoRafI=F ISym2E= 0 IDoP0=0 IntGTp=1.
 FoFCou: FMM=F IPFlag=           0 FMFlag=      100000 FMFlg1=         800
         NFxFlg=           0 DoJE=F BraDBF=F KetDBF=F FulRan=T
         wScrn=  0.000000 ICntrl=      2127 IOpCl=  0 I1Cent=           0 NGrid=           0
         NMat0=    1 NMatS0=      1 NMatT0=    0 NMatD0=    1 NMtDS0=    0 NMtDT0=    0
 Symmetry not used in FoFCou.
 Leave Link  703 at Tue Jan 26 00:25:28 2021, MaxMem=  6291456000 cpu:              24.6 elap:               1.1
 (Enter /home/orgChemistry/bin/gaussian16-C.01/g16/l716.exe)
 Dipole        =-4.99767820D-01 1.38975327D+00 4.47792650D-06
 ***** Axes restored to original set *****
 -------------------------------------------------------------------
 Center     Atomic                   Forces (Hartrees/Bohr)
 Number     Number              X              Y              Z
 -------------------------------------------------------------------
      1        6           0.000800754   -0.004402584   -0.000154221
      2        7          -0.001456843    0.002041806    0.000114963
      3        8           0.000590798    0.003611429    0.000075943
      4        1          -0.000085805   -0.000290214   -0.000004375
      5        1          -0.000260490    0.000001056    0.000010602
      6        1           0.000411587   -0.000961493   -0.000042912
 -------------------------------------------------------------------
 Cartesian Forces:  Max     0.004402584 RMS     0.001509320
 Leave Link  716 at Tue Jan 26 00:25:29 2021, MaxMem=  6291456000 cpu:               0.9 elap:               0.1
 (Enter /home/orgChemistry/bin/gaussian16-C.01/g16/l103.exe)

 GradGradGradGradGradGradGradGradGradGradGradGradGradGradGradGradGradGrad
 Berny optimization.
 Using GEDIIS/GDIIS optimizer.
 FormGI is forming the generalized inverse of G from B-inverse, IUseBI=4.
 Internal  Forces:  Max     0.003455420 RMS     0.001188100
 Search for a local minimum.
 Step number   3 out of a maximum of   24
 All quantities printed in internal units (Hartrees-Bohrs-Radians)
 RMS Force = .11881D-02 SwitMx=.10000D-02 MixMth= 1
 Mixed Optimization -- RFO/linear search
 Update second derivatives using D2CorX and points    1    2    3
 DE= -5.10D-04 DEPred=-5.30D-04 R= 9.61D-01
 TightC=F SS=  1.41D+00  RLast= 6.40D-02 DXNew= 8.4853D-01 1.9187D-01
 Trust test= 9.61D-01 RLast= 6.40D-02 DXMaxT set to 5.05D-01
 The second derivative matrix:
                          R1        R2        R3        R4        R5
           R1           0.78408
           R2           0.03547   0.51632
           R3          -0.00015  -0.00747   0.35096
           R4           0.01778   0.00187  -0.00140   0.43238
           R5           0.01014   0.00208  -0.00059   0.00273   0.54141
           A1           0.04306  -0.00822  -0.00323   0.00544   0.00449
           A2          -0.02646  -0.03541  -0.00172  -0.01229  -0.00626
           A3          -0.04263   0.00331   0.00265  -0.00620  -0.00481
           A4           0.01444   0.02585   0.00095   0.00982   0.00442
           A5           0.01022   0.03526   0.00239   0.01022   0.00446
           D1           0.00000   0.00000   0.00000   0.00000   0.00000
           D2          -0.00000  -0.00000  -0.00000  -0.00000  -0.00000
           D3          -0.00000  -0.00000  -0.00000  -0.00000  -0.00000
           D4           0.00000   0.00000   0.00000   0.00000   0.00000
                          A1        A2        A3        A4        A5
           A1           0.27116
           A2          -0.02666   0.16453
           A3          -0.02440   0.02115   0.18329
           A4           0.01112  -0.00440  -0.00816   0.16832
           A5           0.01473   0.00126  -0.01083   0.00388   0.15744
           D1           0.00000  -0.00000  -0.00000   0.00000  -0.00000
           D2          -0.00000   0.00000   0.00000   0.00000   0.00000
           D3          -0.00000   0.00000   0.00000  -0.00000   0.00000
           D4           0.00000  -0.00000  -0.00000   0.00000   0.00000
                          D1        D2        D3        D4
           D1           0.03258
           D2          -0.00000   0.03258
           D3          -0.00000   0.00000   0.02395
           D4           0.00000  -0.00000  -0.00000   0.02395
 ITU=  1  1  0
 Use linear search instead of GDIIS.
     Eigenvalues ---    0.02395   0.02877   0.03258   0.13986   0.16062
     Eigenvalues ---    0.16609   0.27405   0.35086   0.43264   0.51877
     Eigenvalues ---    0.54133   0.79927
 RFO step:  Lambda=-4.58832686D-05 EMin= 2.39516879D-02
 Quartic linear search produced a step of -0.02957.
 Iteration  1 RMS(Cart)=  0.00440720 RMS(Int)=  0.00001305
 Iteration  2 RMS(Cart)=  0.00001515 RMS(Int)=  0.00000000
 Iteration  3 RMS(Cart)=  0.00000000 RMS(Int)=  0.00000000
 ITry= 1 IFail=0 DXMaxC= 9.13D-03 DCOld= 1.00D+10 DXMaxT= 5.05D-01 DXLimC= 3.00D+00 Rises=F
 Variable       Old X    -DE/DX   Delta X   Delta X   Delta X     New X
                                 (Linear)    (Quad)   (Total)
    R1        2.37580  -0.00133  -0.00025  -0.00125  -0.00150   2.37430
    R2        2.54669   0.00346  -0.00065   0.00741   0.00677   2.55346
    R3        2.06750   0.00024  -0.00008   0.00085   0.00077   2.06827
    R4        1.91533   0.00098  -0.00023   0.00268   0.00245   1.91778
    R5        1.81598   0.00026  -0.00009   0.00065   0.00056   1.81654
    A1        2.10028  -0.00172  -0.00107  -0.00513  -0.00620   2.09408
    A2        2.19347   0.00067  -0.00018   0.00316   0.00298   2.19645
    A3        1.98944   0.00105   0.00125   0.00197   0.00322   1.99266
    A4        1.93080   0.00070   0.00015   0.00360   0.00375   1.93454
    A5        1.92100  -0.00006   0.00053  -0.00180  -0.00127   1.91973
    D1       -3.14159  -0.00000  -0.00000  -0.00001  -0.00001   3.14158
    D2       -0.00000   0.00000   0.00000   0.00001   0.00001   0.00000
    D3        3.14158   0.00000   0.00000   0.00001   0.00001  -3.14159
    D4       -0.00000  -0.00000  -0.00000  -0.00000  -0.00000  -0.00001
         Item               Value     Threshold  Converged?
 Maximum Force            0.003455     0.000450     NO 
 RMS     Force            0.001188     0.000300     NO 
 Maximum Displacement     0.009135     0.001800     NO 
 RMS     Displacement     0.004411     0.001200     NO 
 Predicted change in Energy=-2.337550D-05
 Lowest energy point so far.  Saving SCF results.
 GradGradGradGradGradGradGradGradGradGradGradGradGradGradGradGradGradGrad

 Leave Link  103 at Tue Jan 26 00:25:29 2021, MaxMem=  6291456000 cpu:               6.6 elap:               0.4
 (Enter /home/orgChemistry/bin/gaussian16-C.01/g16/l202.exe)
                          Input orientation:                          
 ---------------------------------------------------------------------
 Center     Atomic      Atomic             Coordinates (Angstroms)
 Number     Number       Type             X           Y           Z
 ---------------------------------------------------------------------
      1          6           0       -2.414218    0.747307   -0.022898
      2          7           0       -1.217721    0.368392   -0.081419
      3          8           0       -2.703201    2.066404    0.025077
      4          1           0       -3.292973    0.095097   -0.005558
      5          1           0       -3.655188    2.192992    0.066820
      6          1           0       -1.160792   -0.644405   -0.111618
 ---------------------------------------------------------------------
                    Distance matrix (angstroms):
                    1          2          3          4          5
     1  C    0.000000
     2  N    1.256426   0.000000
     3  O    1.351232   2.258591   0.000000
     4  H    1.094481   2.094545   2.057867   0.000000
     5  H    1.907370   3.048341   0.961274   2.130164   0.000000
     6  H    1.875049   1.014845   3.121889   2.259272   3.782152
                    6
     6  H    0.000000
 Stoichiometry    CH3NO
 Framework group  C1[X(CH3NO)]
 Deg. of freedom    12
 Full point group                 C1      NOp   1
 RotChk:  IX=2 Diff= 2.11D-03
 Largest Abelian subgroup         C1      NOp   1
 Largest concise Abelian subgroup C1      NOp   1
                         Standard orientation:                         
 ---------------------------------------------------------------------
 Center     Atomic      Atomic             Coordinates (Angstroms)
 Number     Number       Type             X           Y           Z
 ---------------------------------------------------------------------
      1          6           0        0.092985    0.361692    0.000002
      2          7           0        1.155357   -0.309107    0.000000
      3          8           0       -1.102850   -0.267440   -0.000001
      4          1           0        0.024680    1.454040   -0.000003
      5          1           0       -1.814307    0.378994   -0.000001
      6          1           0        1.967022    0.300082   -0.000005
 ---------------------------------------------------------------------
 Rotational constants (GHZ):          79.9826925          11.1152946           9.7590652
 Leave Link  202 at Tue Jan 26 00:25:29 2021, MaxMem=  6291456000 cpu:               0.4 elap:               0.1
 (Enter /home/orgChemistry/bin/gaussian16-C.01/g16/l301.exe)
 Standard basis: 6-311++G(3df,3pd) (5D, 7F)
 Ernie: Thresh=  0.10000D-02 Tol=  0.10000D-05 Strict=F.
 There are   192 symmetry adapted cartesian basis functions of A   symmetry.
 There are   171 symmetry adapted basis functions of A   symmetry.
   171 basis functions,   237 primitive gaussians,   192 cartesian basis functions
    12 alpha electrons       12 beta electrons
       nuclear repulsion energy        70.9404082121 Hartrees.
 IExCor=  402 DFT=T Ex+Corr=B3LYP ExCW=0 ScaHFX=  0.200000
 ScaDFX=  0.800000  0.720000  1.000000  0.810000 ScalE2=  1.000000  1.000000
 IRadAn=      5 IRanWt=     -1 IRanGd=            0 ICorTp=0 IEmpDi=  4
 NAtoms=    6 NActive=    6 NUniq=    6 SFac= 1.00D+00 NAtFMM=   60 NAOKFM=F Big=F
 Integral buffers will be    131072 words long.
 Raffenetti 2 integral format.
 Two-electron integral symmetry is turned on.
 Leave Link  301 at Tue Jan 26 00:25:29 2021, MaxMem=  6291456000 cpu:               2.8 elap:               0.2
 (Enter /home/orgChemistry/bin/gaussian16-C.01/g16/l302.exe)
 NPDir=0 NMtPBC=     1 NCelOv=     1 NCel=       1 NClECP=     1 NCelD=      1
         NCelK=      1 NCelE2=     1 NClLst=     1 CellRange=     0.0.
[...]
                                                                           X             X       X                                   
                                                                           X             X       X                                   
                                                                           X                     X                                   
                                                                           X                     X                                   
                                                                           X                     X                                   
                                                                           X                     X                                   
 
 ***** Axes restored to original set *****
 -------------------------------------------------------------------
 Center     Atomic                   Forces (Hartrees/Bohr)
 Number     Number              X              Y              Z
 -------------------------------------------------------------------
      1        6           0.000072004   -0.000032783   -0.000007052
      2        7          -0.000087721   -0.000054636    0.000002462
      3        8          -0.000044457    0.000007310    0.000002967
      4        1           0.000010235    0.000034590    0.000001416
      5        1           0.000024085   -0.000003057   -0.000000779
      6        1           0.000025854    0.000048577    0.000000986
 -------------------------------------------------------------------
 Cartesian Forces:  Max     0.000087721 RMS     0.000036482
 Force constants in Cartesian coordinates: 
                1             2             3             4             5 
      1  0.947878D+00
      2 -0.747105D-01  0.629591D+00
      3 -0.338229D-01  0.160165D-01  0.159253D+00
      4 -0.594996D+00  0.103614D+00  0.247631D-01  0.672068D+00
      5  0.172418D+00 -0.153660D+00 -0.978973D-02 -0.216634D+00  0.610470D+00
      6  0.266605D-01 -0.702441D-02 -0.511693D-01 -0.310199D-01  0.241906D-01
      7 -0.111969D+00  0.426152D-01  0.404163D-02 -0.182015D-01  0.695211D-01
      8 -0.181084D-01 -0.306082D+00 -0.658859D-02  0.509925D-01 -0.335615D-01
      9  0.236859D-02 -0.902741D-02 -0.409464D-01  0.207029D-02 -0.367304D-02
     10 -0.210669D+00 -0.114335D+00  0.312647D-02 -0.339040D-01 -0.154060D-01
     11 -0.113439D+00 -0.141281D+00  0.216291D-02  0.116450D-01  0.115182D-01
     12  0.315035D-02  0.219830D-02 -0.544690D-01  0.278734D-02  0.179669D-03
     13 -0.103679D-01 -0.718431D-02 -0.368039D-04  0.876399D-03  0.280960D-02
     14  0.509664D-01 -0.755164D-02 -0.208067D-02 -0.881163D-03 -0.863843D-02
     15  0.156540D-02  0.255687D-03 -0.641267D-02  0.000000D+00 -0.391230D-03
     16 -0.198765D-01  0.500010D-01  0.192850D-02 -0.258430D-01 -0.127083D-01
     17 -0.171269D-01 -0.210170D-01  0.279557D-03  0.512642D-01 -0.426128D+00
     18  0.780885D-04 -0.241869D-02 -0.625537D-02  0.139987D-02 -0.105163D-01
                6             7             8             9            10 
      6  0.507359D-01
      7  0.258104D-02  0.640516D+00
      8 -0.292850D-02 -0.116495D+00  0.419450D+00
      9 -0.183781D-02 -0.280683D-01  0.156380D-01  0.233794D-01
     10  0.204111D-02  0.758364D-02  0.611392D-02  0.358726D-03  0.231941D+00
     11 -0.907492D-03 -0.201452D-01 -0.362101D-01 -0.528128D-03  0.124257D+00
     12  0.273504D-01 -0.364810D-03 -0.158282D-02  0.122918D-01 -0.494674D-02
     13  0.100944D-03 -0.511947D+00  0.777521D-01  0.225674D-01  0.224357D-02
     14 -0.242907D-03  0.200298D-01 -0.479779D-01 -0.202791D-02 -0.599623D-03
     15  0.144977D-02  0.209769D-01 -0.434702D-02 -0.454022D-02 -0.149310D-03
     16 -0.363708D-03 -0.598124D-02 -0.255053D-03  0.703298D-03  0.280520D-02
     17 -0.130873D-01  0.447426D-02  0.438085D-02 -0.381473D-03 -0.296712D-04
     18 -0.265290D-01  0.833554D-03 -0.191029D-03  0.116532D-01 -0.430253D-03
               11            12            13            14            15 
     11  0.162808D+00
     12 -0.115420D-02  0.237338D-01
     13 -0.243703D-02 -0.199954D-03  0.518593D+00
     14  0.236730D-03  0.598544D-04 -0.712463D-01  0.648774D-01
     15  0.133694D-03 -0.105273D-02 -0.225463D-01  0.447683D-02  0.731698D-02
     16  0.119257D-03 -0.426178D-03  0.602441D-03  0.173094D-02  0.154051D-03
     17  0.292807D-02  0.299191D-03  0.305935D-03 -0.946161D-03 -0.127954D-03
     18  0.293213D-03 -0.785441D-02  0.114704D-03 -0.185191D-03  0.323887D-02
               16            17            18 
     16  0.482930D-01
     17 -0.388878D-01  0.440783D+00
     18 -0.199597D-02  0.130180D-01  0.257467D-01
 FormGI is forming the generalized inverse of G from B-inverse, IUseBI=4.
 Force constants in internal coordinates: 
                1             2             3             4             5 
      1  0.752324D+00
      2  0.692327D-01  0.414904D+00
      3  0.160594D-01  0.153723D-01  0.326380D+00
      4 -0.516399D-02 -0.215775D-02  0.157144D-02  0.444394D+00
      5  0.356534D-04 -0.124165D-02  0.399386D-03  0.410739D-03  0.530336D+00
      6  0.341538D-01  0.341067D-01 -0.134832D-01  0.102168D-01  0.100352D-01
      7  0.408034D-02 -0.443119D-01  0.339038D-02 -0.766741D-02 -0.155903D-02
      8 -0.382341D-01  0.102052D-01  0.100928D-01 -0.254938D-02 -0.847618D-02
      9  0.717351D-01  0.527432D-02 -0.466100D-02  0.300908D-01 -0.740465D-03
     10  0.679622D-02  0.507198D-01  0.531000D-03  0.182876D-02  0.172696D-01
     11  0.000000D+00 -0.111115D-05  0.000000D+00  0.000000D+00  0.000000D+00
     12  0.000000D+00  0.000000D+00  0.000000D+00  0.000000D+00  0.000000D+00
     13  0.000000D+00  0.000000D+00  0.000000D+00  0.000000D+00  0.000000D+00
     14  0.000000D+00  0.000000D+00  0.000000D+00  0.000000D+00  0.000000D+00
                6             7             8             9            10 
      6  0.172639D+00
      7 -0.818154D-01  0.111887D+00
      8 -0.908232D-01 -0.300714D-01  0.120895D+00
      9  0.130364D-01 -0.938958D-02 -0.364680D-02  0.165830D+00
     10  0.201229D-01 -0.985547D-02 -0.102674D-01  0.607193D-02  0.178744D+00
     11 -0.201247D-05  0.111687D-05  0.000000D+00  0.000000D+00  0.000000D+00
     12  0.000000D+00  0.000000D+00  0.000000D+00  0.000000D+00  0.000000D+00
     13  0.130018D-05  0.000000D+00  0.000000D+00  0.000000D+00  0.000000D+00
     14  0.000000D+00  0.000000D+00  0.000000D+00  0.000000D+00  0.000000D+00
               11            12            13            14 
     11  0.535050D-01
     12 -0.101153D-02  0.296089D-01
     13 -0.294684D-01  0.139070D-01  0.263032D-01
     14  0.188762D-01 -0.132468D-01 -0.121616D-01  0.163246D-01
 Leave Link  716 at Tue Jan 26 00:26:00 2021, MaxMem=  6291456000 cpu:               5.4 elap:               0.3
 (Enter /home/orgChemistry/bin/gaussian16-C.01/g16/l103.exe)

 GradGradGradGradGradGradGradGradGradGradGradGradGradGradGradGradGradGrad
 Berny optimization.
 Red2BG is reusing G-inverse.
 Internal  Forces:  Max     0.000057293 RMS     0.000028605
 Search for a local minimum.
 Step number   1 out of a maximum of    2
 All quantities printed in internal units (Hartrees-Bohrs-Radians)
 Second derivative matrix not updated -- analytic derivatives used.
 The second derivative matrix:
                          R1        R2        R3        R4        R5
           R1           0.75232
           R2           0.06923   0.41490
           R3           0.01606   0.01537   0.32638
           R4          -0.00516  -0.00216   0.00157   0.44439
           R5           0.00004  -0.00124   0.00040   0.00041   0.53034
           A1           0.03415   0.03411  -0.01348   0.01022   0.01004
           A2           0.00408  -0.04431   0.00339  -0.00767  -0.00156
           A3          -0.03823   0.01021   0.01009  -0.00255  -0.00848
           A4           0.07174   0.00527  -0.00466   0.03009  -0.00074
           A5           0.00680   0.05072   0.00053   0.00183   0.01727
           D1          -0.00000  -0.00000  -0.00000  -0.00000  -0.00000
           D2           0.00000   0.00000   0.00000   0.00000  -0.00000
           D3           0.00000   0.00000   0.00000   0.00000  -0.00000
           D4          -0.00000  -0.00000  -0.00000   0.00000  -0.00000
                          A1        A2        A3        A4        A5
           A1           0.17264
           A2          -0.08182   0.11189
           A3          -0.09082  -0.03007   0.12089
           A4           0.01304  -0.00939  -0.00365   0.16583
           A5           0.02012  -0.00986  -0.01027   0.00607   0.17874
           D1          -0.00000   0.00000  -0.00000  -0.00000   0.00000
           D2           0.00000  -0.00000   0.00000  -0.00000   0.00000
           D3           0.00000   0.00000  -0.00000   0.00000  -0.00000
           D4          -0.00000  -0.00000   0.00000  -0.00000  -0.00000
                          D1        D2        D3        D4
           D1           0.05351
           D2          -0.00101   0.02961
           D3          -0.02947   0.01391   0.02630
           D4           0.01888  -0.01325  -0.01216   0.01632
 ITU=  0
     Eigenvalues ---    0.00797   0.03456   0.08322   0.13226   0.15659
     Eigenvalues ---    0.16604   0.24481   0.33079   0.42590   0.44873
     Eigenvalues ---    0.53194   0.78128
 Angle between quadratic step and forces=  29.85 degrees.
 Linear search not attempted -- first point.
 Iteration  1 RMS(Cart)=  0.00018223 RMS(Int)=  0.00000004
 Iteration  2 RMS(Cart)=  0.00000003 RMS(Int)=  0.00000000
 ITry= 1 IFail=0 DXMaxC= 4.66D-04 DCOld= 1.00D+10 DXMaxT= 3.00D-01 DXLimC= 3.00D+00 Rises=F
 Variable       Old X    -DE/DX   Delta X   Delta X   Delta X     New X
                                 (Linear)    (Quad)   (Total)
    R1        2.37318  -0.00006   0.00000  -0.00013  -0.00013   2.37304
    R2        2.55660   0.00001   0.00000   0.00006   0.00006   2.55666
    R3        2.06758  -0.00003   0.00000  -0.00007  -0.00007   2.06751
    R4        1.91759  -0.00005   0.00000  -0.00013  -0.00013   1.91745
    R5        1.81682  -0.00002   0.00000  -0.00005  -0.00005   1.81677
    A1        2.09235   0.00002   0.00000   0.00005   0.00005   2.09240
    A2        2.19873   0.00001   0.00000   0.00016   0.00016   2.19889
    A3        1.99211  -0.00003   0.00000  -0.00021  -0.00021   1.99189
    A4        1.93612   0.00005   0.00000   0.00041   0.00041   1.93653
    A5        1.91897   0.00000   0.00000  -0.00003  -0.00003   1.91894
    D1       -3.14157  -0.00000   0.00000  -0.00002  -0.00002  -3.14159
    D2       -0.00001   0.00000   0.00000   0.00001   0.00001   0.00000
    D3        3.14157   0.00000   0.00000   0.00002   0.00002   3.14159
    D4        0.00001  -0.00000   0.00000  -0.00001  -0.00001   0.00000
         Item               Value     Threshold  Converged?
 Maximum Force            0.000057     0.000450     YES
 RMS     Force            0.000029     0.000300     YES
 Maximum Displacement     0.000466     0.001800     YES
 RMS     Displacement     0.000182     0.001200     YES
 Predicted change in Energy=-2.507113D-08
 Optimization completed.
    -- Stationary point found.
                           ----------------------------
                           !   Optimized Parameters   !
                           ! (Angstroms and Degrees)  !
 --------------------------                            --------------------------
 ! Name  Definition              Value          Derivative Info.                !
 --------------------------------------------------------------------------------
 ! R1    R(1,2)                  1.2558         -DE/DX =   -0.0001              !
 ! R2    R(1,3)                  1.3529         -DE/DX =    0.0                 !
 ! R3    R(1,4)                  1.0941         -DE/DX =    0.0                 !
 ! R4    R(2,6)                  1.0147         -DE/DX =    0.0                 !
 ! R5    R(3,5)                  0.9614         -DE/DX =    0.0                 !
 ! A1    A(2,1,3)              119.8828         -DE/DX =    0.0                 !
 ! A2    A(2,1,4)              125.978          -DE/DX =    0.0                 !
 ! A3    A(3,1,4)              114.1392         -DE/DX =    0.0                 !
 ! A4    A(1,2,6)              110.9316         -DE/DX =    0.0001              !
 ! A5    A(1,3,5)              109.9489         -DE/DX =    0.0                 !
 ! D1    D(3,1,2,6)           -179.9988         -DE/DX =    0.0                 !
 ! D2    D(4,1,2,6)             -0.0005         -DE/DX =    0.0                 !
 ! D3    D(2,1,3,5)            179.9989         -DE/DX =    0.0                 !
 ! D4    D(4,1,3,5)              0.0005         -DE/DX =    0.0                 !
 --------------------------------------------------------------------------------
 GradGradGradGradGradGradGradGradGradGradGradGradGradGradGradGradGradGrad

 Leave Link  103 at Tue Jan 26 00:26:00 2021, MaxMem=  6291456000 cpu:               2.5 elap:               0.2
 (Enter /home/orgChemistry/bin/gaussian16-C.01/g16/l9999.exe)

 ----------------------------------------------------------------------

 Electric dipole moment (input orientation):
 (Debye = 10**-18 statcoulomb cm , SI units = C m)
                  (au)            (Debye)         (10**-30 SI)
   Tot        0.147140D+01      0.373993D+01      0.124751D+02
   x         -0.137179D+01     -0.348674D+01     -0.116305D+02
   y         -0.530647D+00     -0.134877D+01     -0.449902D+01
   z          0.404912D-01      0.102918D+00      0.343299D+00

 Dipole polarizability, Alpha (input orientation).
 (esu units = cm**3 , SI units = C**2 m**2 J**-1)
 Alpha(0;0):
               (au)            (10**-24 esu)      (10**-40 SI)
   iso        0.281072D+02      0.416506D+01      0.463425D+01
   aniso      0.159728D+02      0.236692D+01      0.263355D+01
   xx         0.342599D+02      0.507680D+01      0.564870D+01
   yx        -0.552980D+01     -0.819431D+00     -0.911740D+00
   yy         0.300601D+02      0.445445D+01      0.495624D+01
   zx        -0.727132D+00     -0.107750D+00     -0.119888D+00
   zy         0.500628D+00      0.741855D-01      0.825425D-01
   zz         0.200016D+02      0.296394D+01      0.329782D+01

 ----------------------------------------------------------------------

 Dipole orientation:
     6         -1.20478019          2.70877319          3.74458640
     7         -0.72593956          1.30584112          1.89135695
     8         -2.02100915          5.09998930          3.35462818
     1         -1.02781002          2.19027851          5.73826035
     1         -2.30305814          5.92628215          4.94789940
     1         -0.13591264         -0.42279842          2.47515433

 Electric dipole moment (dipole orientation):
 (Debye = 10**-18 statcoulomb cm , SI units = C m)
                  (au)            (Debye)         (10**-30 SI)
   Tot        0.147140D+01      0.373993D+01      0.124751D+02
   x          0.000000D+00      0.000000D+00      0.000000D+00
   y          0.000000D+00      0.000000D+00      0.000000D+00
   z          0.147140D+01      0.373993D+01      0.124751D+02

 Dipole polarizability, Alpha (dipole orientation).
 (esu units = cm**3 , SI units = C**2 m**2 J**-1)
 Alpha(0;0):
               (au)            (10**-24 esu)      (10**-40 SI)
   iso        0.281072D+02      0.416506D+01      0.463425D+01
   aniso      0.159728D+02      0.236692D+01      0.263355D+01
   xx         0.214605D+02      0.318012D+01      0.353836D+01
   yx        -0.440004D+01     -0.652018D+00     -0.725468D+00
   yy         0.328494D+02      0.486778D+01      0.541614D+01
   zx        -0.178497D+01     -0.264506D+00     -0.294302D+00
   zy         0.522964D+01      0.774953D+00      0.862252D+00
   zz         0.300117D+02      0.444728D+01      0.494827D+01

 ----------------------------------------------------------------------
 Unable to Open any file for archive entry.
 1\1\GINC-NODE2-131\Freq\RB3LYP\6-311++G(3df,3pd)\C1H3N1O1\RUTHM\26-Jan
 -2021\0\\#P Geom=AllCheck Guess=TCheck SCRF=Check GenChk RB3LYP/6-311+
 +G(3df,3pd) Freq\\title\\0,1\C,-2.4146838828,0.745971069,-0.0229007048
 \N,-1.2184158552,0.3683033752,-0.0813905799\O,-2.7029130241,2.06693571
 14,0.0250788924\H,-3.2940535225,0.0952038134,-0.0055106049\H,-3.655033
 7305,2.1936188763,0.0668232539\H,-1.1589930394,-0.6442459644,-0.111696
 6636\\Version=ES64L-G16RevC.01\State=1-A\HF=-169.9392489\RMSD=3.893e-0
 9\RMSF=3.648e-05\ZeroPoint=0.0456256\Thermal=0.0490729\ETot=-169.89017
 6\HTot=-169.8892318\GTot=-169.9178557\Dipole=-1.3717881,-0.5306474,0.0
 404912\DipoleDeriv=1.0639566,-0.5374051,-0.0527344,-0.6527947,1.406211
 5,0.0616766,-0.0559072,0.0570362,0.1239471,-0.990794,0.5314647,0.03570
 06,0.1657937,-0.4793203,-0.0070062,0.0256261,-0.0216993,-0.468437,-0.4
 167878,0.2457678,0.007686,0.6487412,-1.2282567,-0.0490597,0.0187878,-0
 .0328602,-0.3957325,-0.1580059,-0.0760536,0.0110106,-0.0632196,-0.0488
 064,-0.0034391,0.0113579,-0.002925,0.1676145,0.2190097,-0.0641724,0.00
 31503,-0.0753891,0.3085538,0.0021233,0.0028399,0.0016737,0.3413571,0.2
 826214,-0.0996014,-0.0048131,-0.0231314,0.0416181,-0.004295,-0.0027045
 ,-0.0012254,0.2312507\Polar=34.2599159,-5.5297976,30.0600973,-0.727131
 7,0.5006283,20.001632\Quadrupole=0.3135135,1.0872638,-1.4007773,-1.664
 1613,-0.1150782,0.1356942\PG=C01 [X(C1H3N1O1)]\NImag=0\\0.94787843,-0.
 07471046,0.62959142,-0.03382293,0.01601653,0.15925279,-0.59499560,0.10
 361393,0.02476314,0.67206768,0.17241815,-0.15366028,-0.00978973,-0.216
 63449,0.61047023,0.02666050,-0.00702441,-0.05116932,-0.03101989,0.0241
 9062,0.05073595,-0.11196939,0.04261517,0.00404163,-0.01820148,0.069521
 06,0.00258104,0.64051574,-0.01810840,-0.30608154,-0.00658859,0.0509925
 2,-0.03356146,-0.00292850,-0.11649512,0.41945011,0.00236859,-0.0090274
 1,-0.04094644,0.00207029,-0.00367304,-0.00183781,-0.02806831,0.0156379
 6,0.02337943,-0.21066903,-0.11433535,0.00312647,-0.03390403,-0.0154060
 1,0.00204111,0.00758364,0.00611392,0.00035873,0.23194065,-0.11343877,-
 0.14128092,0.00216291,0.01164500,0.01151818,-0.00090749,-0.02014519,-0
 .03621005,-0.00052813,0.12425673,0.16280799,0.00315035,0.00219830,-0.0
 5446897,0.00278734,0.00017967,0.02735042,-0.00036481,-0.00158282,0.012
 29185,-0.00494674,-0.00115420,0.02373385,-0.01036794,-0.00718431,-0.00
 003680,0.00087640,0.00280960,0.00010094,-0.51194727,0.07775213,0.02256
 740,0.00224357,-0.00243703,-0.00019995,0.51859281,0.05096637,-0.007551
 64,-0.00208067,-0.00088116,-0.00863843,-0.00024291,0.02002982,-0.04797
 791,-0.00202791,-0.00059962,0.00023673,0.00005985,-0.07124634,0.064877
 41,0.00156540,0.00025569,-0.00641267,-0.00000074,-0.00039123,0.0014497
 7,0.02097689,-0.00434702,-0.00454022,-0.00014931,0.00013369,-0.0010527
 3,-0.02254629,0.00447683,0.00731698,-0.01987647,0.05000102,0.00192850,
 -0.02584297,-0.01270832,-0.00036371,-0.00598124,-0.00025505,0.00070330
 ,0.00280520,0.00011926,-0.00042618,0.00060244,0.00173094,0.00015405,0.
 04829304,-0.01712689,-0.02101703,0.00027956,0.05126421,-0.42612824,-0.
 01308731,0.00447426,0.00438085,-0.00038147,-0.00002967,0.00292807,0.00
 029919,0.00030594,-0.00094616,-0.00012795,-0.03888784,0.44078251,0.000
 07809,-0.00241869,-0.00625537,0.00139987,-0.01051629,-0.02652900,0.000
 83355,-0.00019103,0.01165320,-0.00043025,0.00029321,-0.00785441,0.0001
 1470,-0.00018519,0.00323887,-0.00199597,0.01301799,0.02574671\\-0.0000
 7200,0.00003278,0.00000705,0.00008772,0.00005464,-0.00000246,0.0000444
 6,-0.00000731,-0.00000297,-0.00001024,-0.00003459,-0.00000142,-0.00002
 409,0.00000306,0.00000078,-0.00002585,-0.00004858,-0.00000099\\\@
 The archive entry for this job was punched.


 QED = W**5 (WHICH WAS WHAT WE WANTED)
 Job cpu time:       0 days  0 hours  7 minutes  2.3 seconds.
 Elapsed time:       0 days  0 hours  0 minutes 19.0 seconds.
 File lengths (MBytes):  RWF=     58 Int=      0 D2E=      0 Chk=      4 Scr=      1
 Normal termination of Gaussian 16 at Tue Jan 26 00:26:00 2021.
