 --invoking executable--
/home/orgChemistry/bin/cfour_v21/bin/xjoda


   *************************************************************************
         <<<     CCCCCC     CCCCCC   |||     CCCCCC     CCCCCC   >>>
       <<<      CCC        CCC       |||    CCC        CCC         >>>
      <<<      CCC        CCC        |||   CCC        CCC            >>>
    <<<        CCC        CCC        |||   CCC        CCC              >>>
      <<<      CCC        CCC        |||   CCC        CCC            >>>
       <<<      CCC        CCC       |||    CCC        CCC         >>>
         <<<     CCCCCC     CCCCCC   |||     CCCCCC     CCCCCC   >>>
   *************************************************************************

     ****************************************************************
     * CFOUR Coupled-Cluster techniques for Computational Chemistry *
     ****************************************************************
 

   Department of Chemistry                Institut fuer Physikalische Chemie
   University of Florida                  Universitaet Mainz
   Gainesville, FL 32611, USA             D-55099 Mainz, Germany

   Department of Chemistry                Fakultaet fuer Chemie und Biowiss.
   Johns Hopkins University               Karlsruher Institut fuer Technologie
   Baltimore, MD 21218, USA               D-76131 Karlsruhe, Germany

   Department of Chemistry                Department of Physical Chemistry
   Southern Methodist University          Eotvos Lorand University
   Dallas, TX 75275, USA                  H-1053 Budapest, Hungary

 
                       Version 2.1
 
                     node2-056                                         
                     Fri Jan 29 00:57:00 CET 2021                      
                     integer*8 version is running
 
********************************************************************************
*                          Input from ZMAT file                                *
********************************************************************************
title                                                                           
C                                                                               
N 1 R12                                                                         
H 1 R13 2 A213                                                                  
H 1 R14 2 A214 3 D3214                                                          
H 1 R15 2 A215 3 D3215                                                          
O 2 R26 1 A126 3 D3126                                                          
                                                                                
R12  =        1.486843489273255                                                 
R13  =        1.091277641678203                                                 
A213 =      106.984153616811909                                                 
R14  =        1.091277634127410                                                 
A214 =      106.984155008247612                                                 
D3214=     -115.464439533144201                                                 
R15  =        1.089774086641546                                                 
A215 =      110.943258710915501                                                 
D3215=      122.267778435625047                                                 
R26  =        1.212856468378427                                                 
A126 =      112.779307937524720                                                 
D3126=     -122.267757476145590                                                 
                                                                                
*CFOUR(CALC=CCSD(T),BASIS=cc-pVTZ,FROZEN_CORE=1                                 
       VIB=EXACT                                                                
       MEMORY_SIZE=5000,MEM_UNIT=MB,ABCDTYPE=AOBASIS,CC_PROG=ECC                
       MULTIPLICITY=1,CHARGE=0                                                  
       SCF_CONV=8,CC_CONV=10)                                                   
                                                                                
********************************************************************************
    -------------------------------------------------------------------
                    CFOUR Control Parameters 
    -------------------------------------------------------------------
        External           Internal           Value            Units
          Name               Name
    -------------------------------------------------------------------
       ABCDTYPE             IABCDT         AOBASIS     [  2]    ***   
       ANHARMONIC           IANHAR         OFF         [  0]    ***   
       ANH_ALGORIT          IANALG         STANDARD    [  0]    ***   
       ANH_DERIVAT          IANDER         SECOND      [  1]    ***   
       ANH_MODE             ANHMOD         VIBRATION   [  0]    ***   
       ANH_STEPSIZ          ICUBST             50000          x 10-6  
       ANH_SYMMETR          IANHSM         ABELIAN     [  0]    ***   
       AO_LADDERS           IAOLAD         SINGLEPASS  [  1]    ***   
       AV_SCF               IAVSCF         OFF         [  0]    ***   
       BASIS                IBASIS         PVTZ        [ 14]    ***   
       BOTHVECTORS          BOTHVC         OFF         [  0]    ***   
       BOX_POTENT           IPIAB          OFF         [  0]    ***   
       BREIT                IBREIT         OFF         [  0]    ***   
       BRUCK_CONV           IBRTOL          10D-  4             ***   
       BRUECKNER            IBRKNR         OFF         [  0]    ***   
       BUFFERSIZE           IBUFFS              4096            ***   
       CACHE_RECS           ICHREC             10               ***   
       CALCLEVEL            ICLLVL         CCSD(T)     [ 22]    ***   
       CCORBOPT             ICCORB         OFF         [  0]  x 0.01  
       CC_CONV              ICCCNV          10D- 10             ***   
       CC_EXPORDER          ICCEOR              5               ***   
       CC_EXTRAPOL          ICCEXT         DIIS        [  1]    ***   
       CC_GUESS             ICCGES         MP2         [  0]    ***   
       CC_MAXCYC            ICCCYC            100              cycles 
       CC_PROGRAM           ICCPRO         ECC         [  1]    ***   
       CHARGE               ICHRGE              0               ***   
       CHOLESKY             ICHOLE         OFF         [  0]    ***   
       CIS_CONV             ICISTL              5               ***   
       COMM_SIZE            IPSIZE            ***               ***   
       CONSTANT             ICONST         OLD         [  1]    ***   
       CONTINUUM            ICONTU         NONE        [  0]    ***   
       CONTRACTION          ICNTYP         GENERAL     [  1]    ***   
       COORDINATES          ICOORD         INTERNAL    [  0]    ***   
       CPHF_CONVER          ICPHFT          10D- 16             ***   
       CPHF_MAXCYC          ICPHFC             64              cycles 
       CUBIC                ICUBIC         OFF         [  0]    ***   
       CURVILINEAR          ICURVY         OFF         [  0]    ***   
       DBOC                 IDBOC          OFF         [  0]    ***   
       DCT                  IDCT           OFF         [  0]    ***   
       DERIV_LEV            IDRLVL         SECOND      [  2]    ***   
       DEVMEM_SIZE          IDVMEM         *********           MByte  
       DIAG_MRCC            IEOMST          10D-  0             ***   
       DIFF_TYPE            IDIFTY         RELAXED     [  0]    ***   
       DIRECT               IDIRCT         OFF         [  0]    ***   
       DROPMO               IDRPMO      NONE         
       ECP                  IECP           OFF         [  0]    ***   
       EIGENVECTOR          IVEC                1               ***   
       EL_ANHARM            IELANH         OFF         [  0]    ***   
       EOMFOLLOW            IEOMSR         ENERGY      [  0]    ***   
       EOMIP                IEOMIP         OFF         [  0]    ***   
       EOMLEVEL             HBARFM         SAME        [  0]    ***   
       EOM_MRCC             IMRCCE         NEW         [  1]    ***   
       EOM_NONIT            EOMNON         OFF         [  0]    ***   
       EOM_NSING            IEOMSI          10D-  0             ***   
       EOM_NSTATES          IMRCCD         DAVIDSON    [  0]    ***   
       EOM_NTRIP            IEOMTR          10D-  0             ***   
       EOM_ORDER            IEXORD         ENERGY      [  0]    ***   
       EOM_PROPSTA          IEOMST              0               ***   
       ESTATE_CONV          IEXTOL          10D-  5             ***   
       ESTATE_DIAG          IEXDIG         ITERATIVE   [  0]    ***   
       ESTATE_LOCK          IESLOC         ON          [  1]    ***   
       ESTATE_MAXC          IEXMXC             40               ***   
       ESTATE_PROP          IEXPRP         OFF         [  0]    ***   
       EVAL_HESS            IRECAL              0            # of cyc.
       EXCITATION           IEXCIT              0               ***   
       EXCITE               IEXCIT         NONE        [  0]    ***   
       EXTERN_POT           IEXPOT         OFF         [  0]    ***   
       FCGRADNEW            IFCGNW         OFF         [  0]    ***   
       FC_FIELD             IFINFC              0             x 10-6  
       FD_CALTYPE           IFDCAL         GRADONLY    [  0]    ***   
       FD_PROJECT           IFDPRJ         OFF         [  1]    ***   
       FD_STEPSIZE          IDISFD              0            10-4 bohr
       FD_USEGROUP          IFDGRP         FULL        [  0]    ***   
       FILE_RECSIZ          IFLREC              4096           words  
       FINITE_PERT          IFIPER              0             x 10-6  
       FIXGEOM              IFIXGM         OFF         [  0]    ***   
       FOCK                 IFOCK          AO          [  1]    ***   
       FREQ_ALGORI          IVIALG         STANDARD    [  0]    ***   
       FROZEN_CORE          IFROCO         ON          [  1]    ***   
       GAMMA_ABCD           IGABCD         DIRECT      [  1]    ***   
       GAMMA_ABCI           IGABCI         STORE       [  0]    ***   
       GENBAS_1             IGNBS1              0               ***   
       GENBAS_2             IGNBS2              0               ***   
       GENBAS_3             IGNBS3              0               ***   
       GENBAS_4             IGNBS4              0               ***   
       GEO_CONV             ICONTL              5              H/bohr 
       GEO_MAXCYC           IOPTCY             50               ***   
       GEO_MAXSTEP          IMXSTP            300            millibohr
       GEO_METHOD           INR            SINGLE_POINT[  5]    ***   
       GIAO                 IGIAO          OFF         [  1]    ***   
       GIMIC                IGIMIC         OFF         [  0]    ***   
       GRID                 IGRID          OFF         [  0]    ***   
       GRID_ALGO            IGALGO         SERIAL      [  0]    ***   
       GUESS                IGUESS         MOREAD      [  0]    ***   
       HBAR                 IHBAR          OFF         [  0]    ***   
       HESS_TYPE            IHESTP         SCF         [  0]    ***   
       HF2_FILE             IHF2Fl         USE         [  1]    ***   
       HFSTABILITY          ISTABL         OFF         [  0]    ***   
       INCORE               INCORE         OFF         [  0]    ***   
       INPUT_MRCC           IMRCC          ON          [  1]    ***   
       INTEGRALS            INTTYP         VMOL        [  1]    ***   
       JODA_PRINT           IJPRNT              0               ***   
       KEYWORD_OUT          IDMPKW         NO          [  0]    ***   
       LINDEP_TOL           ILINDP              8               ***   
       LINEQ_CONV           IZTACN          10D-  7           cycles  
       LINEQ_EXPOR          ILMAXD              5               ***   
       LINEQ_MAXCY          ILMAXC            100               ***   
       LINEQ_TYPE           ILTYPE         DIIS        [  1]    ***   
       LOCK_ORBOCC          ILOCOC         OFF         [  0]    ***   
       MEMORY_SIZE          IMEMSZ         625000000           words  
       MEM_UNIT             IMEMU          MB          [  2]    ***   
       MRCC                 IMRCCC         OFF         [  0]    ***   
       MULTIPLICTY          IMULTP              1               ***   
       NACOUPLING           IVCOUP         OFF         [  0]    ***   
       NEGEVAL              IDIE           ABORT       [  0]    ***   
       NEWNORM              INEWNO         OFF         [  0]    ***   
       NON-HF               INONHF         OFF         [  0]    ***   
       NTOP_TAMP            ITOPT2             15               ***   
       NUC_MODEL            INUCMO         POINT       [  0]    ***   
       OCCUPATION           IOCCU   ESTIMATED BY SCF 
       OPEN-SHELL           IOPEN          SPIN-ORBITAL[  0]    ***   
       OPTVIB               IOPTVB         OFF         [  0]    ***   
       ORBITALS             IORBTP         STANDARD    [  0]    ***   
       PARALLEL             IPARAL         ON          [  1]    ***   
       PARA_INT             IPINTS         ON          [  1]    ***   
       PARA_PRINT           IPPRIN              0               ***   
       PERT_ORB             IPTORB         CANONICAL   [  1]    ***   
       POINTS               IGRDFD              0               ***   
       PRINT                IPRNT               0               ***   
       PROPS                IPROPS         OFF         [  0]    ***   
       PROP_INTEGR          IINTYP         INTERNAL    [  0]    ***   
       PSI                  IPSI           OFF         [  0]    ***   
       QC_ALG               IQCALG         FLM         [  0]    ***   
       QC_LINALG            IQCLIN         TRIDIAG     [  2]    ***   
       QC_MAXCYC            IQCMAX          10D-100           cycles  
       QC_MAXSCFCY          IQCMSC          10D- 15           cycles  
       QC_RTRUST            IQCRTR          10D-  0           x 10-3  
       QC_SKIPSCF           IQCSKI         OFF         [  0]    ***   
       QC_START             IQCSTA          10D-  1             ***   
       QRHFGUESS            IQGUES         OFF         [  0]    ***   
       QUARTIC              IQUART         OFF         [  0]    ***   
       RAMAN_INT            IRAMIN         OFF         [  0]    ***   
       RAMAN_ORB            IRAMRE         UNRELAXED   [  0]    ***   
       RDO                  IRDOFM         ON          [  1]    ***   
       REDUCE_REPR          REDREP         Ir          [  0]    ***   
       REFERENCE            IREFNC         RHF         [  0]    ***   
       RELATIVIST           IRELAT         OFF         [  0]    ***   
       RELAX_DENS           IRDENS         ON          [  1]    ***   
       RESET_FLAGS          IRESET         OFF         [  0]    ***   
       RESTART_CC           ICCRES         OFF         [  0]    ***   
       ROT_EVEC             ROTVEC              0               ***   
       SAVE_INTS            ISVINT         OFF         [  0]    ***   
       SCALE_ON             ISTCRT              0               ***   
       SCF_CONV             ISCFCV          10D-  8             ***   
       SCF_DAMPING          IDAMP               0             x 10-3  
       SCF_EXPORDE          IRPPOR              6               ***   
       SCF_EXPSTAR          IRPPLS              8               ***   
       SCF_EXTRAPO          IRPP           ON          [  1]    ***   
       SCF_MAXCYC           ISCFCY            150              cycles 
       SCF_NOSTOP           ISCFST         OFF         [  0]    ***   
       SCF_PRINT            ISCFPR              0               ***   
       SCF_PROG             ISCFPR         SCF         [  0]    ***   
       SD_FIELD             IFINSD              0             x 10-6  
       SOPERT               IPERSO         OFF         [  0]    ***   
       SPHERICAL            IDFGHI         ON          [  1]    ***   
       SPINORBIT            ISOCAL         OFF         [  0]    ***   
       SPINROTATIO          ISRCON         OFF         [  0]    ***   
       SPIN_FLIP            ISPFLP         OFF         [  0]    ***   
       SPIN_ORBIT           ISPORB         OFF         [  0]    ***   
       SPIN_SCAL            ISCSMP         OFF         [  0]    ***   
       STEEPSCALE           ISTPSC              1000          x 10-3  
       SUBGROUP             ISUBGP         DEFAULT     [  0]    ***   
       SUBGRPAXIS           ISBXYZ         X           [  0]    ***   
       SYMMETRY             ISYM           ON          [  0]    ***   
       SYM_CHECK            ISYMCK         OVERRIDE    [  1]    ***   
       T3_EXTRAPOL          IT3EXT         OFF         [  0]    ***   
       T4_EXTRAPOL          IT4EXP         OFF         [  0]    ***   
       TAMP_SUM             IEVERY              5               ***   
       TESTSUITE            ITESTS         OFF         [  0]    ***   
       THERMOCH             ITHERM         ON          [  1]    ***   
       TOL_CHOLESK          ITOLCH          10D-  4             ***   
       TRANGRAD             IRESRM         OFF         [  0]    ***   
       TRANS_INV            ITRAIN         USE         [  0]    ***   
       TREAT_PERT           ITREAT         SIMULTANEOUS[  0]    ***   
       TRIP_ALGORI          ITRALG         NORMAL      [  0]    ***   
       UIJ_THRESHO          IUIJTH              1               ***   
       UNITS                IUNITS         ANGSTROM    [  0]    ***   
       UNOS                 IUNOS          OFF         [  0]    ***   
       UPDATE_HESS          IHUPDT         ON          [  1]    ***   
       VIBPHASE             ISETPH         STANDARD    [  0]    ***   
       VIBRATION            IVIB           ANALYTIC    [  1]    ***   
       VIB_ALGORIT          IGEALG         STANDARD    [  0]    ***   
       VNATORB              IVNORB         OFF         [  0]    ***   
       VTRAN                IVTRAN         PARTIAL     [  2]    ***   
       XFIELD               IXEFLD              0             x 10-6  
       XFORM_TOL            IXFTOL          10D- 11             ***   
       YFIELD               IYEFLD              0             x 10-6  
       ZFIELD               IZEFLD              0             x 10-6  
       ZSCALE_EXP           IZEXPS         OFF         [  0]    ***   
    -------------------------------------------------------------------
   6 entries found in Z-matrix 
   Job Title : title                                                                           
   There are 12 unique internal coordinates.
   Of these,  0 will be optimized.
   User supplied Z-matrix: 
--------------------------------------------------------------------------------
       SYMBOL    BOND      LENGTH    ANGLE     ANGLE     DIHED     ANGLE
                  TO      (ANGST)    WRT      (DEG)      WRT      (DEG)
--------------------------------------------------------------------------------
        C    
        N          1         R12  
        H          1         R13        2        A213 
        H          1         R14        2        A214       3        D3214
        H          1         R15        2        A215       3        D3215
        O          2         R26        1        A126       3        D3126
                  *Initial values for internal coordinates* 
                      Name             Value
                        R12             1.4868434893
                        R13             1.0912776417
                        A213          106.9841536168
                        R14             1.0912776341
                        A214          106.9841550082
                        D3214        -115.4644395331
                        R15             1.0897740866
                        A215          110.9432587109
                        D3215         122.2677784356
                        R26             1.2128564684
                        A126          112.7793079375
                        D3126        -122.2677574761
--------------------------------------------------------------------------------
   Rotational constants (in cm-1): 
          0.3424269174             0.3830754240             2.0156389843
   Rotational constants (in MHz): 
      10265.7021648620         11484.3139044503         60427.3450203789
********************************************************************************
   The full molecular point group is C1  .
   The largest Abelian subgroup of the full molecular point group is C1  .
   The computational point group is C1  .
********************************************************************************
--------------------------------------------------------------------------------
   Analysis of internal coordinates specified by Z-matrix 
--------------------------------------------------------------------------------
   *The nuclear repulsion energy is   70.221759699155285 a.u.
  *WARNING* Parameters A213  and A214  appear to be equivalent.
  *WARNING* Parameters R14   and R13   appear to be equivalent.
   *There are  12 degrees of freedom within the tot. symm. molecular subspace.
   *Z-matrix requests optimization of   0 coordinates.
   *The optimization is constrained.
   *The following   9 parameters can have non-zero 
    derivatives within the totally symmetric subspace:
             D3215[ 9]  D3214[ 6]  A213 [ 3]  A215 [ 8]  R15  [ 7]  R14  [ 4]
             A126 [11]  R12  [ 1]  R26  [10]
   *The following   0 parameters are to be optimized:

   *The following coordinates must be varied in an  unconstrained optimization.
             D3215[ 9]  D3214[ 6]  A213 [ 3]  A215 [ 8]  R15  [ 7]  R14  [ 4]
             A126 [11]  R12  [ 1]  R26  [10]
--------------------------------------------------------------------------------


 ----------------------------------------------------------------
         Coordinates used in calculation (QCOMP) 
 ----------------------------------------------------------------
 Z-matrix   Atomic            Coordinates (in bohr)
  Symbol    Number           X              Y              Z
 ----------------------------------------------------------------
     C         6         2.24362668    -0.34673090    -0.00000001
     N         7        -0.23752159     0.97178049    -0.00000001
     H         1         3.26968428     0.30040358     1.66768067
     H         1         3.26968493     0.30040471    -1.66767983
     H         1         1.99110223    -2.39056474    -0.00000071
     O         8        -2.01280915    -0.47786325     0.00000000
 ----------------------------------------------------------------
 
   Interatomic distance matrix (Angstroms) 
 
                 C             N             H             H             H    
                [ 1]        [ 2]        [ 3]        [ 4]        [ 5]
  C    [ 1]     0.00000
  N    [ 2]     1.48684     0.00000
  H    [ 3]     1.09128     2.08555     0.00000
  H    [ 4]     1.09128     2.08555     1.76500     0.00000
  H    [ 5]     1.08977     2.13463     1.80675     1.80675     0.00000
  O    [ 6]     2.25348     1.21286     2.96016     2.96016     2.34812
 
                 O    
                [ 6]
  O    [ 6]     0.00000
 rotcon2
   Rotational constants (in cm-1): 
          2.0156389843             0.3830754240             0.3424269174
   Rotational constants (in MHz): 
      60427.3450203788         11484.3139044503         10265.7021648620
  There are   3 frozen-core orbitals.
  There are  132 basis functions.
 @CHECKOUT-I, Total execution time (CPU/WALL):        0.11/       0.83 seconds.
--executable xjoda finished with status     0 in        2.62 seconds (walltime).
 --invoking executable--
/home/orgChemistry/bin/cfour_v21/bin/xvmol
 SERIAL VERSION OF MOLECULE STARTED
********************************************************************************
                    INPUT FROM MOL FILE
********************************************************************************
INTGRL        1    0    1    0    0    0    0    0    0                         
         *** CFOUR Program System (Release V0.1) ***                            
title                                                                           
    6    0            0.10E-08              0    0                              
   9999.00      3.00                                                            
          6.00000000    1    4    1    1    1    1                              
C #1   2.243626684954960  -0.346730898859384  -0.000000007651898                
   10    4                                                                      
   8236.00000000000       5.310000000000000E-004 -1.130000000000000E-004        
  0.000000000000000E+000  0.000000000000000E+000                                
   1235.00000000000       4.108000000000000E-003 -8.780000000000000E-004        
  0.000000000000000E+000  0.000000000000000E+000                                
   280.800000000000       2.108700000000000E-002 -4.540000000000000E-003        
  0.000000000000000E+000  0.000000000000000E+000                                
   79.2700000000000       8.185300000000000E-002 -1.813300000000000E-002        
  0.000000000000000E+000  0.000000000000000E+000                                
   25.5900000000000       0.234817000000000      -5.576000000000000E-002        
  0.000000000000000E+000  0.000000000000000E+000                                
   8.99700000000000       0.434401000000000      -0.126895000000000             
  0.000000000000000E+000  0.000000000000000E+000                                
   3.31900000000000       0.346129000000000      -0.170352000000000             
  0.000000000000000E+000  0.000000000000000E+000                                
  0.905900000000000       3.937800000000000E-002  0.140382000000000             
   1.00000000000000       0.000000000000000E+000                                
  0.364300000000000      -8.983000000000000E-003  0.598684000000000             
  0.000000000000000E+000  0.000000000000000E+000                                
  0.128500000000000       2.385000000000000E-003  0.395389000000000             
  0.000000000000000E+000   1.00000000000000                                     
    5    3                                                                      
   18.7100000000000       1.403100000000000E-002  0.000000000000000E+000        
  0.000000000000000E+000                                                        
   4.13300000000000       8.686600000000000E-002  0.000000000000000E+000        
  0.000000000000000E+000                                                        
   1.20000000000000       0.290216000000000       0.000000000000000E+000        
  0.000000000000000E+000                                                        
  0.382700000000000       0.501008000000000        1.00000000000000             
  0.000000000000000E+000                                                        
  0.120900000000000       0.343406000000000       0.000000000000000E+000        
   1.00000000000000                                                             
    2    2                                                                      
   1.09700000000000        1.00000000000000       0.000000000000000E+000        
  0.318000000000000       0.000000000000000E+000   1.00000000000000             
    1    1                                                                      
  0.761000000000000        1.00000000000000                                     
          7.00000000    1    4    1    1    1    1                              
N #2  -0.237521590319486   0.971780487082913  -0.000000005390494                
   10    4                                                                      
   11420.0000000000       5.230000000000000E-004 -1.150000000000000E-004        
  0.000000000000000E+000  0.000000000000000E+000                                
   1712.00000000000       4.045000000000000E-003 -8.950000000000000E-004        
  0.000000000000000E+000  0.000000000000000E+000                                
   389.300000000000       2.077500000000000E-002 -4.624000000000000E-003        
  0.000000000000000E+000  0.000000000000000E+000                                
   110.000000000000       8.072699999999999E-002 -1.852800000000000E-002        
  0.000000000000000E+000  0.000000000000000E+000                                
   35.5700000000000       0.233074000000000      -5.733900000000000E-002        
  0.000000000000000E+000  0.000000000000000E+000                                
   12.5400000000000       0.433501000000000      -0.132076000000000             
  0.000000000000000E+000  0.000000000000000E+000                                
   4.64400000000000       0.347472000000000      -0.172510000000000             
  0.000000000000000E+000  0.000000000000000E+000                                
   1.29300000000000       4.126200000000000E-002  0.151814000000000             
   1.00000000000000       0.000000000000000E+000                                
  0.511800000000000      -8.508000000000000E-003  0.599944000000000             
  0.000000000000000E+000  0.000000000000000E+000                                
  0.178700000000000       2.384000000000000E-003  0.387462000000000             
  0.000000000000000E+000   1.00000000000000                                     
    5    3                                                                      
   26.6300000000000       1.467000000000000E-002  0.000000000000000E+000        
  0.000000000000000E+000                                                        
   5.94800000000000       9.176400000000000E-002  0.000000000000000E+000        
  0.000000000000000E+000                                                        
   1.74200000000000       0.298683000000000       0.000000000000000E+000        
  0.000000000000000E+000                                                        
  0.555000000000000       0.498487000000000        1.00000000000000             
  0.000000000000000E+000                                                        
  0.172500000000000       0.337023000000000       0.000000000000000E+000        
   1.00000000000000                                                             
    2    2                                                                      
   1.65400000000000        1.00000000000000       0.000000000000000E+000        
  0.469000000000000       0.000000000000000E+000   1.00000000000000             
    1    1                                                                      
   1.09300000000000        1.00000000000000                                     
          1.00000000    1    3    1    1    1                                   
H #3   3.269684283107996   0.300403579664382   1.667680670307336                
    5    3                                                                      
   33.8700000000000       6.068000000000000E-003  0.000000000000000E+000        
  0.000000000000000E+000                                                        
   5.09500000000000       4.530800000000000E-002  0.000000000000000E+000        
  0.000000000000000E+000                                                        
   1.15900000000000       0.202822000000000       0.000000000000000E+000        
  0.000000000000000E+000                                                        
  0.325800000000000       0.503903000000000        1.00000000000000             
  0.000000000000000E+000                                                        
  0.102700000000000       0.383421000000000       0.000000000000000E+000        
   1.00000000000000                                                             
    2    2                                                                      
   1.40700000000000        1.00000000000000       0.000000000000000E+000        
  0.388000000000000       0.000000000000000E+000   1.00000000000000             
    1    1                                                                      
   1.05700000000000        1.00000000000000                                     
          1.00000000    1    3    1    1    1                                   
H #4   3.269684928872968   0.300404707386923  -1.667679833045621                
    5    3                                                                      
   33.8700000000000       6.068000000000000E-003  0.000000000000000E+000        
  0.000000000000000E+000                                                        
   5.09500000000000       4.530800000000000E-002  0.000000000000000E+000        
  0.000000000000000E+000                                                        
   1.15900000000000       0.202822000000000       0.000000000000000E+000        
  0.000000000000000E+000                                                        
  0.325800000000000       0.503903000000000        1.00000000000000             
  0.000000000000000E+000                                                        
  0.102700000000000       0.383421000000000       0.000000000000000E+000        
   1.00000000000000                                                             
    2    2                                                                      
   1.40700000000000        1.00000000000000       0.000000000000000E+000        
  0.388000000000000       0.000000000000000E+000   1.00000000000000             
    1    1                                                                      
   1.05700000000000        1.00000000000000                                     
          1.00000000    1    3    1    1    1                                   
H #5   1.991102229238437  -2.390564737829032  -0.000000705593196                
    5    3                                                                      
   33.8700000000000       6.068000000000000E-003  0.000000000000000E+000        
  0.000000000000000E+000                                                        
   5.09500000000000       4.530800000000000E-002  0.000000000000000E+000        
  0.000000000000000E+000                                                        
   1.15900000000000       0.202822000000000       0.000000000000000E+000        
  0.000000000000000E+000                                                        
  0.325800000000000       0.503903000000000        1.00000000000000             
  0.000000000000000E+000                                                        
  0.102700000000000       0.383421000000000       0.000000000000000E+000        
   1.00000000000000                                                             
    2    2                                                                      
   1.40700000000000        1.00000000000000       0.000000000000000E+000        
  0.388000000000000       0.000000000000000E+000   1.00000000000000             
    1    1                                                                      
   1.05700000000000        1.00000000000000                                     
          8.00000000    1    4    1    1    1    1                              
O #6  -2.012809148200904  -0.477863252613214   0.000000002163653                
   10    4                                                                      
   15330.0000000000       5.080000000000000E-004 -1.150000000000000E-004        
  0.000000000000000E+000  0.000000000000000E+000                                
   2299.00000000000       3.929000000000000E-003 -8.950000000000000E-004        
  0.000000000000000E+000  0.000000000000000E+000                                
   522.400000000000       2.024300000000000E-002 -4.636000000000000E-003        
  0.000000000000000E+000  0.000000000000000E+000                                
   147.300000000000       7.918100000000000E-002 -1.872400000000000E-002        
  0.000000000000000E+000  0.000000000000000E+000                                
   47.5500000000000       0.230687000000000      -5.846300000000000E-002        
  0.000000000000000E+000  0.000000000000000E+000                                
   16.7600000000000       0.433118000000000      -0.136463000000000             
  0.000000000000000E+000  0.000000000000000E+000                                
   6.20700000000000       0.350260000000000      -0.175740000000000             
  0.000000000000000E+000  0.000000000000000E+000                                
   1.75200000000000       4.272800000000000E-002  0.160934000000000             
   1.00000000000000       0.000000000000000E+000                                
  0.688200000000000      -8.154000000000000E-003  0.603418000000000             
  0.000000000000000E+000  0.000000000000000E+000                                
  0.238400000000000       2.381000000000000E-003  0.378765000000000             
  0.000000000000000E+000   1.00000000000000                                     
    5    3                                                                      
   34.4600000000000       1.592800000000000E-002  0.000000000000000E+000        
  0.000000000000000E+000                                                        
   7.74900000000000       9.974000000000000E-002  0.000000000000000E+000        
  0.000000000000000E+000                                                        
   2.28000000000000       0.310492000000000       0.000000000000000E+000        
  0.000000000000000E+000                                                        
  0.715600000000000       0.491026000000000        1.00000000000000             
  0.000000000000000E+000                                                        
  0.214000000000000       0.336337000000000       0.000000000000000E+000        
   1.00000000000000                                                             
    2    2                                                                      
   2.31400000000000        1.00000000000000       0.000000000000000E+000        
  0.645000000000000       0.000000000000000E+000   1.00000000000000             
    1    1                                                                      
   1.42800000000000        1.00000000000000                                     
FINISH                                                                          
 
********************************************************************************
 ONE- AND TWO-ELECTRON INTEGRALS OVER SYMMETRY-ADAPTED AOS ARE CALCULATED.

  SPHERICAL HARMONICS ARE USED.
  
  INTEGRALS LESS THAN  0.10E-13 ARE NEGLECTED.

  NUCLEAR REPULSION ENERGY :   70.2217596992 A.U.
  @MOLECU-I, ONE ELECTRON INTEGRALS (CPU/WALL):        0.04/       0.05 SECONDS.
  @TWOEL-I,   37930188 INTEGRALS OF SYMMETRY TYPE  I I I I
  @TWOEL-I, TOTAL NUMBER OF 2-E INTEGRALS   37930188.
  @MOLECU-I, TWO ELECTRON INTEGRALS (CPU/WALL):       11.73/      12.40 SECONDS.
 @CHECKOUT-I, Total execution time (CPU/WALL):       11.78/      12.49 seconds.

Running with 24 threads/proc

--executable xvmol finished with status     0 in       13.62 seconds (walltime).
 --invoking executable--
/home/orgChemistry/bin/cfour_v21/bin/xvmol2ja
 @GETMEM-I,  Allocated    4768 MB of main memory.
 @CHECKOUT-I, Total execution time (CPU/WALL):        0.01/       0.02 seconds.
--executable xvmol2ja finished with status     0 in        0.11 seconds (walltime).
 --invoking executable--
/home/orgChemistry/bin/cfour_v21/bin/xvscf
  There are  132 functions in the AO basis.

  There are 1 irreducible representations.

       Irrep        # of functions
         1                132


  Parameters for SCF calculation: 
        SCF reference function:  RHF  
  Maximum number of iterations:  150
     Full symmetry point group: C1  
     Computational point group: C1  
        Initial density matrix: MOREAD                 
     SCF convergence tolerance: 10**(- 8)
  DIIS convergence acceleration:  ON
          Latest start for DIIS:   8
                     DIIS order:   6

  Memory information:     925589 words required.
  Fock matrices are constructed from AO integral file.
 @GETMEM-I,  Allocated       7 MB of main memory.
  Initialization and symmetry analysis required      0.002 seconds.

  @INITGES-I, Occupancies from core Hamiltonian:

          Alpha population by irrep:  12
           Beta population by irrep:  12


 total no. of electrons in initial guess :  0.000000000000000E+000
  --------------------------------------------------------------------
  Iteration         Total Energy            Largest Density Difference
  --------------------------------------------------------------------
       0            70.221759699155285              0.0000000000D+00
       1          -129.582413399320046              0.1367074201D+02
       2          -126.961307049938512              0.1366800566D+02
       3          -135.912038963723518              0.8003625778D+01
       4          -120.828442129912588              0.8003314445D+01
       5          -135.835577430822013              0.7991105678D+01
       6          -120.537176380499119              0.8275012380D+01
       7          -135.810782846489133              0.8275220681D+01
       8          -120.519908105089343              0.8293850638D+01
       9          -151.619872707162557              0.8284555629D+01
      10          -168.626969461029631              0.4489188798D+01
      11          -168.807299350450592              0.5755664934D+00
      12          -168.883390748554575              0.2583192751D+00
      13          -168.889632258173833              0.9110064614D-01
      14          -168.891556865209822              0.2975683015D-01
      15          -168.891634419187227              0.8416244392D-02
      16          -168.891646098095521              0.4358322763D-02
      17          -168.891646813872143              0.1044022365D-02
      18          -168.891646853471173              0.1778350623D-03
      19          -168.891646859557625              0.8482776749D-04
      20          -168.891646860757277              0.5353887687D-04
      21          -168.891646861075486              0.2561527708D-04
      22          -168.891646861092511              0.5500440428D-05
      23          -168.891646861094102              0.1669743510D-05
      24          -168.891646861091715              0.2210841466D-06
      25          -168.891646861093705              0.9949655766D-07
      26          -168.891646861093733              0.2541679089D-07
      27          -168.891646861093733              0.1488339763D-07

  SCF has converged.

 Density matrix saved to file den.dat
 total electron number:   24.0000000000002     
     E(SCF)=      -168.891646861094500              0.4885974625D-08

  Eigenvector printing suppressed.

 @PUTMOS-I, Writing converged MOs to NEWMOS. 
 @PUTMOS-I, Symmetry   1 Full Blocks 33 Partial Blocksize   0
 @PUTFOCK-I, Writing converged Fock matrix to NEWFOCK. 
 @PUTFOCK-I, Symmetry   1 Full Blocks 33 Partial Blocksize   0


 
  ORBITAL EIGENVALUES (ALPHA)  (1H = 27.2113834 eV)

       MO #        E(hartree)               E(eV)           FULLSYM    COMPSYM
       ----   --------------------   --------------------   -------   ---------
    1     1         -20.6276965333        -561.3081590262       A         A (1)
    2     2         -15.7023930685        -427.2838380853       A         A (1)
    3     3         -11.2711421044        -306.7033691595       A         A (1)
    4     4          -1.5095342447         -41.0765150874       A         A (1)
    5     5          -1.0743105795         -29.2334770684       A         A (1)
    6     6          -0.8623026474         -23.4644479440       A         A (1)
    7     7          -0.6907553429         -18.7964084708       A         A (1)
    8     8          -0.6743489813         -18.3499686768       A         A (1)
    9     9          -0.6390752950         -17.3901228747       A         A (1)
   10    10          -0.5618098024         -15.2876219298       A         A (1)
   11    11          -0.5363452969         -14.5946975090       A         A (1)
   12    12          -0.4055140893         -11.0345993573       A         A (1)
  +++++++++++++++++++++++++++++++++++++++++++++++++++++++++++++++++++++++++++++
   13    13           0.1016390512           2.7657391893       A         A (1)
   14    14           0.1421559821           3.8682609303       A         A (1)
   15    15           0.2044040520           5.5621170277       A         A (1)
   16    16           0.2066511413           5.6232634347       A         A (1)
   17    17           0.2436629709           6.6304065219       A         A (1)
   18    18           0.3497508038           9.5172032168       A         A (1)
   19    19           0.3638608637           9.9011574657       A         A (1)
   20    20           0.4529196770          12.3245709810       A         A (1)
   21    21           0.5350699176          14.5599926735       A         A (1)
   22    22           0.5815487084          15.8247448711       A         A (1)
   23    23           0.6041896584          16.4408364413       A         A (1)
   24    24           0.6053085282          16.4712824353       A         A (1)
   25    25           0.6168786039          16.7861202012       A         A (1)
   26    26           0.6406432079          17.4327879518       A         A (1)
   27    27           0.6967323539          18.9590512082       A         A (1)
   28    28           0.7168420404          19.5062635984       A         A (1)
   29    29           0.7654527511          20.8290282857       A         A (1)
   30    30           0.7930671038          21.5804530242       A         A (1)
   31    31           0.8072579911          21.9666066976       A         A (1)
   32    32           0.8551868779          23.2708180136       A         A (1)
   33    33           0.9500423854          25.8519675957       A         A (1)
   34    34           1.0289596973          27.9994168263       A         A (1)
   35    35           1.0356971760          28.1827529415       A         A (1)
   36    36           1.0951402730          29.8002818450       A         A (1)
   37    37           1.1542462751          31.4086379304       A         A (1)
   38    38           1.1673674958          31.7656844973       A         A (1)
   39    39           1.2361809336          33.6381933371       A         A (1)
   40    40           1.2556352153          34.1675712544       A         A (1)
   41    41           1.3115340531          35.6886559604       A         A (1)
   42    42           1.3753288898          37.4246017226       A         A (1)
   43    43           1.3912192178          37.8569995283       A         A (1)
   44    44           1.4918017388          40.5939890726       A         A (1)
   45    45           1.5040213544          40.9265017157       A         A (1)
   46    46           1.5587138829          42.4147610785       A         A (1)
   47    47           1.5875966324          43.2007006485       A         A (1)
   48    48           1.6493729194          44.8817188797       A         A (1)
   49    49           1.6870228047          45.9062243435       A         A (1)
   50    50           1.7243077048          46.9207980556       A         A (1)
   51    51           1.7637674697          47.9945528467       A         A (1)
   52    52           1.8953291619          51.5745284938       A         A (1)
   53    53           1.9703792005          53.6167438680       A         A (1)
   54    54           2.0782410981          56.5518153191       A         A (1)
   55    55           2.2693981424          61.7534629405       A         A (1)
   56    56           2.4003576610          65.3170526102       A         A (1)
   57    57           2.4457283139          66.5516508427       A         A (1)
   58    58           2.5358145088          69.0030208298       A         A (1)
   59    59           2.5585949324          69.6229076720       A         A (1)
   60    60           2.5868303436          70.3912322711       A         A (1)
   61    61           2.8324976793          77.0761803307       A         A (1)
   62    62           2.9668825758          80.7329792722       A         A (1)
   63    63           2.9902494582          81.3688244688       A         A (1)
   64    64           3.0881146482          84.0318716759       A         A (1)
   65    65           3.0900738188          84.0851834164       A         A (1)
   66    66           3.1179193350          84.8428984360       A         A (1)
   67    67           3.2007499033          87.0968327870       A         A (1)
   68    68           3.2132708219          87.4375443034       A         A (1)
   69    69           3.2641485378          88.8219973359       A         A (1)
   70    70           3.2839722451          89.3614278352       A         A (1)
   71    71           3.3813004788          92.0098637183       A         A (1)
   72    72           3.4087466449          92.7567118677       A         A (1)
   73    73           3.4977080019          95.1774734619       A         A (1)
   74    74           3.5679603279          97.0891364394       A         A (1)
   75    75           3.5760406962          97.3090144392       A         A (1)
   76    76           3.6777986969         100.0779904096       A         A (1)
   77    77           3.6927598454         100.4851039571       A         A (1)
   78    78           3.7375861424         101.7048895122       A         A (1)
   79    79           3.8124545262         103.7421618078       A         A (1)
   80    80           3.8718207671         105.3575993505       A         A (1)
   81    81           3.9779468272         108.2454362610       A         A (1)
   82    82           3.9808937467         108.3256260163       A         A (1)
   83    83           4.0318159969         109.7112908895       A         A (1)
   84    84           4.0394372327         109.9186752592       A         A (1)
   85    85           4.0759825214         110.9131231211       A         A (1)
   86    86           4.1353865096         112.5295878189       A         A (1)
   87    87           4.1822125415         113.8037889271       A         A (1)
   88    88           4.2244078475         114.9519815770       A         A (1)
   89    89           4.3018921872         117.0604376506       A         A (1)
   90    90           4.3263860509         117.7269495665       A         A (1)
   91    91           4.4009631176         119.7562947218       A         A (1)
   92    92           4.4225373808         120.3433602711       A         A (1)
   93    93           4.4297721890         120.5402294095       A         A (1)
   94    94           4.5227386035         123.0699741567       A         A (1)
   95    95           4.5724267340         124.4220569280       A         A (1)
   96    96           4.6577251147         126.7431438692       A         A (1)
   97    97           4.7086081802         128.1277424726       A         A (1)
   98    98           4.7734352392         129.8917764299       A         A (1)
   99    99           4.8873669058         132.9920146900       A         A (1)
  100   100           4.9152166619         133.7498450813       A         A (1)
  101   101           5.0280577662         136.8204076326       A         A (1)
  102   102           5.1002615215         138.7851717029       A         A (1)
  103   103           5.2123452363         141.8351246371       A         A (1)
  104   104           5.2170262932         141.9625026725       A         A (1)
  105   105           5.2990189736         144.1936369348       A         A (1)
  106   106           5.3583171887         145.8072234006       A         A (1)
  107   107           5.3651571543         145.9933483280       A         A (1)
  108   108           5.3715096023         146.1662072247       A         A (1)
  109   109           5.5102433300         149.9413438793       A         A (1)
  110   110           5.5179323680         150.1505732411       A         A (1)
  111   111           5.5530585644         151.1064056397       A         A (1)
  112   112           5.5658412161         151.4542392740       A         A (1)
  113   113           5.5801600983         151.8438758678       A         A (1)
  114   114           5.6165024335         152.8328010843       A         A (1)
  115   115           5.6483888890         153.7004756519       A         A (1)
  116   116           5.7098168956         155.3720166896       A         A (1)
  117   117           5.8626241934         159.5301146558       A         A (1)
  118   118           5.9806646554         162.7421589244       A         A (1)
  119   119           6.0950094323         165.8536384894       A         A (1)
  120   120           6.1547956482         167.4805041316       A         A (1)
  121   121           6.2110791847         169.0120570237       A         A (1)
  122   122           6.7684424183         184.1786816639       A         A (1)
  123   123           6.7858430746         184.6521775942       A         A (1)
  124   124           6.8322471505         185.9148966970       A         A (1)
  125   125           6.8842075601         187.3288113228       A         A (1)
  126   126           7.0717813203         192.4329528285       A         A (1)
  127   127           7.3265565052         199.3657380654       A         A (1)
  128   128           7.4237574410         202.0107099958       A         A (1)
  129   129           7.5979434537         206.7505523710       A         A (1)
  130   130           8.7309812146         237.5820772892       A         A (1)
  131   131          13.1453588458         357.7033994827       A         A (1)
  132   132          13.7342546972         373.7280702776       A         A (1)


  VSCF finished.

 @CHECKOUT-I, Total execution time (CPU/WALL):       15.49/      23.83 seconds.
--executable xvscf finished with status     0 in       24.12 seconds (walltime).
 --invoking executable--
/home/orgChemistry/bin/cfour_v21/bin/xvtran
 @GETMEM-I,  Allocated    4768 MB of main memory.
  Partial RHF integral transformation
  Frozen-core orbitals requested within analytic derivative calculation
  Transformation of IIII integrals :
  1 pass through the AO integral file was required.
    37930188 AO integrals were read.
    12173600 MO integrals were written to HF2.
  Summary of active molecular orbitals: 
------------------------------------------------------------------------
 
  Index      Eigenvalue    Symmetry    Index      Eigenvalue    Symmetry
------------------------------------------------------------------------
     1       -20.6276965        1        67         3.2007499        1
     2       -15.7023931        1        68         3.2132708        1
     3       -11.2711421        1        69         3.2641485        1
     4        -1.5095342        1        70         3.2839722        1
     5        -1.0743106        1        71         3.3813005        1
     6        -0.8623026        1        72         3.4087466        1
     7        -0.6907553        1        73         3.4977080        1
     8        -0.6743490        1        74         3.5679603        1
     9        -0.6390753        1        75         3.5760407        1
    10        -0.5618098        1        76         3.6777987        1
    11        -0.5363453        1        77         3.6927598        1
    12        -0.4055141        1        78         3.7375861        1
    13         0.1016391        1        79         3.8124545        1
    14         0.1421560        1        80         3.8718208        1
    15         0.2044041        1        81         3.9779468        1
    16         0.2066511        1        82         3.9808937        1
    17         0.2436630        1        83         4.0318160        1
    18         0.3497508        1        84         4.0394372        1
    19         0.3638609        1        85         4.0759825        1
    20         0.4529197        1        86         4.1353865        1
    21         0.5350699        1        87         4.1822125        1
    22         0.5815487        1        88         4.2244078        1
    23         0.6041897        1        89         4.3018922        1
    24         0.6053085        1        90         4.3263861        1
    25         0.6168786        1        91         4.4009631        1
    26         0.6406432        1        92         4.4225374        1
    27         0.6967324        1        93         4.4297722        1
    28         0.7168420        1        94         4.5227386        1
    29         0.7654528        1        95         4.5724267        1
    30         0.7930671        1        96         4.6577251        1
    31         0.8072580        1        97         4.7086082        1
    32         0.8551869        1        98         4.7734352        1
    33         0.9500424        1        99         4.8873669        1
    34         1.0289597        1       100         4.9152167        1
    35         1.0356972        1       101         5.0280578        1
    36         1.0951403        1       102         5.1002615        1
    37         1.1542463        1       103         5.2123452        1
    38         1.1673675        1       104         5.2170263        1
    39         1.2361809        1       105         5.2990190        1
    40         1.2556352        1       106         5.3583172        1
    41         1.3115341        1       107         5.3651572        1
    42         1.3753289        1       108         5.3715096        1
    43         1.3912192        1       109         5.5102433        1
    44         1.4918017        1       110         5.5179324        1
    45         1.5040214        1       111         5.5530586        1
    46         1.5587139        1       112         5.5658412        1
    47         1.5875966        1       113         5.5801601        1
    48         1.6493729        1       114         5.6165024        1
    49         1.6870228        1       115         5.6483889        1
    50         1.7243077        1       116         5.7098169        1
    51         1.7637675        1       117         5.8626242        1
    52         1.8953292        1       118         5.9806647        1
    53         1.9703792        1       119         6.0950094        1
    54         2.0782411        1       120         6.1547956        1
    55         2.2693981        1       121         6.2110792        1
    56         2.4003577        1       122         6.7684424        1
    57         2.4457283        1       123         6.7858431        1
    58         2.5358145        1       124         6.8322472        1
    59         2.5585949        1       125         6.8842076        1
    60         2.5868303        1       126         7.0717813        1
    61         2.8324977        1       127         7.3265565        1
    62         2.9668826        1       128         7.4237574        1
    63         2.9902495        1       129         7.5979435        1
    64         3.0881146        1       130         8.7309812        1
    65         3.0900738        1       131        13.1453588        1
    66         3.1179193        1       132        13.7342547        1
------------------------------------------------------------------------
  -20.6276965332897       -15.7023930685313       -11.2711421044280     
  -1.50953424467920       -1.07431057945973      -0.862302647356029     
 -0.690755342882695      -0.674348981347601      -0.639075295035952     
 -0.561809802354977      -0.536345296909972      -0.405514089271762     
  0.101639051152802       0.142155982055985       0.204404052007712     
  0.206651141255405       0.243662970914456       0.349750803804397     
  0.363860863674562       0.452919677027228       0.535069917594773     
  0.581548708440060       0.604189658411258       0.605308528168566     
  0.616878603870383       0.640643207864920       0.696732353864914     
  0.716842040393724       0.765452751134239       0.793067103826490     
  0.807257991064803       0.855186877914279       0.950042385411062     
   1.02895969729867        1.03569717596638        1.09514027298506     
   1.15424627512190        1.16736749581570        1.23618093364229     
   1.25563521531184        1.31153405307560        1.37532888984109     
   1.39121921777317        1.49180173884945        1.50402135437710     
   1.55871388290031        1.58759663238979        1.64937291941243     
   1.68702280471148        1.72430770482569        1.76376746970818     
   1.89532916190407        1.97037920049121        2.07824109813935     
   2.26939814241557        2.40035766098368        2.44572831393445     
   2.53581450878497        2.55859493244111        2.58683034362272     
   2.83249767928806        2.96688257577383        2.99024945820430     
   3.08811464822230        3.09007381875178        3.11791933503867     
   3.20074990332818        3.21327082192439        3.26414853777185     
   3.28397224505636        3.38130047876442        3.40874664489531     
   3.49770800193317        3.56796032793525        3.57604069623354     
   3.67779869691028        3.69275984539149        3.73758614242991     
   3.81245452621069        3.87182076713296        3.97794682724527     
   3.98089374670526        4.03181599688643        4.03943723269710     
   4.07598252138392        4.13538650956177        4.18221254150097     
   4.22440784752563        4.30189218717138        4.32638605086446     
   4.40096311758202        4.42253738084819        4.42977218899977     
   4.52273860345793        4.57242673402745        4.65772511474898     
   4.70860818022869        4.77343523923389        4.88736690579187     
   4.91521666190921        5.02805776616947        5.10026152154137     
   5.21234523626174        5.21702629321394        5.29901897361222     
   5.35831718870105        5.36515715434000        5.37150960228943     
   5.51024332997729        5.51793236800632        5.55305856444201     
   5.56584121607093        5.58016009828328        5.61650243347320     
   5.64838888903604        5.70981689558591        5.86262419336481     
   5.98066465538224        6.09500943231700        6.15479564819353     
   6.21107918473758        6.76844241825126        6.78584307456460     
   6.83224715054198        6.88420756008909        7.07178132033317     
   7.32655650522469        7.42375744100627        7.59794345373254     
   8.73098121462030        13.1453588457655        13.7342546971570     
 @CHECKOUT-I, Total execution time (CPU/WALL):        4.55/       5.15 seconds.
--executable xvtran finished with status     0 in        5.25 seconds (walltime).
 --invoking executable--
/home/orgChemistry/bin/cfour_v21/bin/xintprc
 @GETMEM-I,  Allocated    4768 MB of main memory.
  @GMOIAA-I, Processing MO integrals for spin case AA.
  @GMOIAA-I, Generation of integral list completed.
                      TYPE                NUMBER
                      ----               --------
                      PPPP                     0
                      PPPH              10454400
                      PPHH               1037520
                      PHPH                566279
                      PHHH                112320
                      HHHH                  3081

                     TOTAL              12173600

  @FORMT2-I, Second-order MP correlation energies:
            ------------------------------------------------
            E(SCF)                  =   -168.891646861095 a.u.
            E2(AA)                  =     -0.073536165699 a.u.
            E2(AB)                  =     -0.461187856504 a.u.
            E2(TOT)                 =     -0.608260187902 a.u.
            Total MP2 energy        =   -169.499907048996 a.u.
            ------------------------------------------------
   Largest T2 amplitudes for spin case AB:
       _       _                 _       _                 _       _
   i   j   a   b             i   j   a   b             i   j   a   b
-----------------------------------------------------------------------------
[ 11  11  13  13]-0.07275 [  9   9  13  13]-0.04727 [ 11   9  13  13] 0.04715
[  9  11  13  13] 0.04715 [ 11   8  13  31] 0.02572 [  8  11  31  13] 0.02572
[ 12  12  21  21]-0.02453 [  8   8  31  31]-0.02254 [  6   6  13  13]-0.01996
[  9   8  13  31]-0.01951 [  8   9  31  13]-0.01951 [ 11  11  32  13] 0.01934
[ 11  11  13  32] 0.01934 [ 12  12  13  13]-0.01934 [  7   7  21  21]-0.01522
-----------------------------------------------------------------------------
   Norm of T2AB vector (  2073600 symmetry allowed elements):  0.3626606967.
-----------------------------------------------------------------------------
 @CHECKOUT-I, Total execution time (CPU/WALL):        0.87/       2.05 seconds.
--executable xintprc finished with status     0 in        2.14 seconds (walltime).
  calling xecc 
 --invoking executable--
/home/orgChemistry/bin/cfour_v21/bin/xecc
 @GETMEM-I,  Allocated    4768 MB of main memory.
 CCSD(T) energy will be calculated.
 AO based algorithm is used. 
   Frozen core orbitals in analytic derivative calculation
 Largest T2 amplitudes for spin case AB:
        _       _                 _       _                 _       _
    i   j   a   b             i   j   a   b             i   j   a   b
 -----------------------------------------------------------------------------
 [ 11  11  13  13]-0.07275 [  9   9  13  13]-0.04727 [ 11   9  13  13] 0.04715
 [  9  11  13  13] 0.04715 [ 11   8  13  31] 0.02572 [  8  11  31  13] 0.02572
 [ 12  12  21  21]-0.02453 [  8   8  31  31]-0.02254 [  6   6  13  13]-0.01996
 [  9   8  13  31]-0.01951 [  8   9  31  13]-0.01951 [ 11  11  32  13] 0.01934
 [ 11  11  13  32] 0.01934 [ 12  12  13  13]-0.01934 [  7   7  21  21]-0.01522
 -----------------------------------------------------------------------------
 Norm of T2AB vector (  2073600 symmetry allowed elements):  0.3626606967.
 -----------------------------------------------------------------------------
 The total correlation energy is -0.608260187902 a.u.
 Resorts of amplitudes and integrals (CPU/WALL):       0.06/       0.12 seconds.
 Starting iterative solution of the CC equations.
 The DIIS procedure is used to accelerate convergence.
 5 expansion vectors are used in the DIIS extrapolation.
 Convergence criterium is 10**(-10).
 Maximum number of iterations is 100.
 >>>>>>>>>>>>>>>>>>>>>>>>>>>>>>>>>>>>>>>>>>>>>>>>>>>>>>>>>>>>>>>>>>>>>>>>>>>>>>>
 Iteration Nr.   1 started:
 Generation of Intermediates required (CPU/WALL):      0.89/       1.36 seconds.
 Transformation of t(ab,ij) amplitudes required    0.0 seconds.
 Contraction of t(mu nu,ij) with AO integrals required    8.0 seconds.
 Backtransformation of t(mu nu,ij) increments required    0.1 seconds.
 Construction of Hbar required (CPU/WALL):             8.72/      10.08 seconds.
   Frozen core orbitals in analytic derivative calculation
 Amplitude changes are:
 -------------------------------------------------------------------
              Spin      RMS          Max.      Max. change for
  Amplitude   Case     Change       Change       i    j    a    b
 -------------------------------------------------------------------
     T1        AA    0.0000367523-0.0229284136    9        13
     T2        AB    0.0000000263-0.0063139042   12   12   13   13
 -------------------------------------------------------------------
 The total correlation energy is -0.600683354865 a.u.
 Convergence information after     1 iterations: 
 Largest element of residual vector : -0.22928414E-01.
 Largest element of DIIS residual   : -0.22928414E-01.
 Iteration Nr.   1 required (CPU/WALL):                9.81/      11.83 seconds.
 >>>>>>>>>>>>>>>>>>>>>>>>>>>>>>>>>>>>>>>>>>>>>>>>>>>>>>>>>>>>>>>>>>>>>>>>>>>>>>>
 Iteration Nr.   2 started:
 Generation of Intermediates required (CPU/WALL):      0.86/       1.29 seconds.
 Transformation of t(ab,ij) amplitudes required    0.0 seconds.
 Contraction of t(mu nu,ij) with AO integrals required    8.0 seconds.
 Backtransformation of t(mu nu,ij) increments required    0.1 seconds.
 Construction of Hbar required (CPU/WALL):             8.70/       9.28 seconds.
   Frozen core orbitals in analytic derivative calculation
 Amplitude changes are:
 -------------------------------------------------------------------
              Spin      RMS          Max.      Max. change for
  Amplitude   Case     Change       Change       i    j    a    b
 -------------------------------------------------------------------
     T1        AA    0.0000061981 0.0030570178    7        21
     T2        AB    0.0000000145-0.0123979274   11   11   13   13
 -------------------------------------------------------------------
 The total correlation energy is -0.622023291882 a.u.
 Convergence information after     2 iterations: 
 Largest element of residual vector : -0.12397927E-01.
 Largest element of DIIS residual   : -0.10508752E-01.
 Iteration Nr.   2 required (CPU/WALL):                9.84/      11.07 seconds.
 >>>>>>>>>>>>>>>>>>>>>>>>>>>>>>>>>>>>>>>>>>>>>>>>>>>>>>>>>>>>>>>>>>>>>>>>>>>>>>>
 Iteration Nr.   3 started:
 Generation of Intermediates required (CPU/WALL):      0.86/       1.27 seconds.
 Transformation of t(ab,ij) amplitudes required    0.0 seconds.
 Contraction of t(mu nu,ij) with AO integrals required    8.0 seconds.
 Backtransformation of t(mu nu,ij) increments required    0.1 seconds.
 Construction of Hbar required (CPU/WALL):             8.66/       9.27 seconds.
   Frozen core orbitals in analytic derivative calculation
 Amplitude changes are:
 -------------------------------------------------------------------
              Spin      RMS          Max.      Max. change for
  Amplitude   Case     Change       Change       i    j    a    b
 -------------------------------------------------------------------
     T1        AA    0.0000065543-0.0046331384    9        13
     T2        AB    0.0000000048-0.0034484233   11   11   13   13
 -------------------------------------------------------------------
 The total correlation energy is -0.620964289262 a.u.
 Convergence information after     3 iterations: 
 Largest element of residual vector : -0.46331384E-02.
 Largest element of DIIS residual   :  0.34743032E-02.
 Iteration Nr.   3 required (CPU/WALL):                9.87/      11.16 seconds.
 >>>>>>>>>>>>>>>>>>>>>>>>>>>>>>>>>>>>>>>>>>>>>>>>>>>>>>>>>>>>>>>>>>>>>>>>>>>>>>>
 Iteration Nr.   4 started:
 Generation of Intermediates required (CPU/WALL):      0.86/       1.29 seconds.
 Transformation of t(ab,ij) amplitudes required    0.0 seconds.
 Contraction of t(mu nu,ij) with AO integrals required    7.9 seconds.
 Backtransformation of t(mu nu,ij) increments required    0.1 seconds.
 Construction of Hbar required (CPU/WALL):             8.65/       9.27 seconds.
   Frozen core orbitals in analytic derivative calculation
 Amplitude changes are:
 -------------------------------------------------------------------
              Spin      RMS          Max.      Max. change for
  Amplitude   Case     Change       Change       i    j    a    b
 -------------------------------------------------------------------
     T1        AA    0.0000014375 0.0005775708    8        31
     T2        AB    0.0000000017-0.0015020444   12   12   13   13
 -------------------------------------------------------------------
 The total correlation energy is -0.623394589831 a.u.
 Convergence information after     4 iterations: 
 Largest element of residual vector : -0.15020444E-02.
 Largest element of DIIS residual   : -0.11760064E-02.
 Iteration Nr.   4 required (CPU/WALL):                9.94/      11.28 seconds.
 >>>>>>>>>>>>>>>>>>>>>>>>>>>>>>>>>>>>>>>>>>>>>>>>>>>>>>>>>>>>>>>>>>>>>>>>>>>>>>>
 Iteration Nr.   5 started:
 Generation of Intermediates required (CPU/WALL):      0.86/       1.28 seconds.
 Transformation of t(ab,ij) amplitudes required    0.0 seconds.
 Contraction of t(mu nu,ij) with AO integrals required    8.0 seconds.
 Backtransformation of t(mu nu,ij) increments required    0.1 seconds.
 Construction of Hbar required (CPU/WALL):             8.68/       9.26 seconds.
   Frozen core orbitals in analytic derivative calculation
 Amplitude changes are:
 -------------------------------------------------------------------
              Spin      RMS          Max.      Max. change for
  Amplitude   Case     Change       Change       i    j    a    b
 -------------------------------------------------------------------
     T1        AA    0.0000009324 0.0006923766   11        13
     T2        AB    0.0000000008-0.0008807060   12   12   13   13
 -------------------------------------------------------------------
 The total correlation energy is -0.623767797042 a.u.
 Convergence information after     5 iterations: 
 Largest element of residual vector : -0.88070604E-03.
 Largest element of DIIS residual   : -0.55370982E-03.
 Iteration Nr.   5 required (CPU/WALL):               10.05/      11.41 seconds.
 Largest T1 amplitudes for spin case AA:
    i       a                 i       a                 i       a    
 -----------------------------------------------------------------------------
 [  9      13    ]-0.02951 [ 12      21    ] 0.02060 [ 11      13    ] 0.01884
 [ 11      26    ] 0.01728 [ 12      14    ] 0.01584 [ 12      17    ]-0.01379
 [  9      26    ]-0.01245 [ 11      32    ] 0.01048 [ 11      30    ] 0.00954
 [ 12      16    ] 0.00854 [ 11      19    ]-0.00843 [  9      24    ] 0.00817
 [ 11      42    ] 0.00703 [ 11      36    ]-0.00680 [  7      27    ]-0.00669
 -----------------------------------------------------------------------------
 Norm of T1AA vector (     1440 symmetry allowed elements):  0.0659693790.
 -----------------------------------------------------------------------------
 Largest T2 amplitudes for spin case AB:
        _       _                 _       _                 _       _
    i   j   a   b             i   j   a   b             i   j   a   b
 -----------------------------------------------------------------------------
 [ 11  11  13  13]-0.09168 [ 11   9  13  13] 0.05982 [  9  11  13  13] 0.05982
 [  9   9  13  13]-0.05403 [ 12  12  13  13]-0.03866 [ 12  12  21  21]-0.03063
 [ 11  11  32  13] 0.02330 [ 11  11  13  32] 0.02330 [  8   8  31  31]-0.02300
 [  6   6  13  13]-0.02240 [ 11   8  13  31] 0.02183 [  8  11  31  13] 0.02183
 [ 12   7  21  21]-0.01882 [  7  12  21  21]-0.01882 [ 10  10  25  25]-0.01833
 -----------------------------------------------------------------------------
 Norm of T2AB vector (  2073600 symmetry allowed elements):  0.4037417470.
 -----------------------------------------------------------------------------
 >>>>>>>>>>>>>>>>>>>>>>>>>>>>>>>>>>>>>>>>>>>>>>>>>>>>>>>>>>>>>>>>>>>>>>>>>>>>>>>
 Iteration Nr.   6 started:
 Generation of Intermediates required (CPU/WALL):      0.86/       1.33 seconds.
 Transformation of t(ab,ij) amplitudes required    0.0 seconds.
 Contraction of t(mu nu,ij) with AO integrals required    7.9 seconds.
 Backtransformation of t(mu nu,ij) increments required    0.1 seconds.
 Construction of Hbar required (CPU/WALL):             8.62/       9.21 seconds.
   Frozen core orbitals in analytic derivative calculation
 Amplitude changes are:
 -------------------------------------------------------------------
              Spin      RMS          Max.      Max. change for
  Amplitude   Case     Change       Change       i    j    a    b
 -------------------------------------------------------------------
     T1        AA    0.0000002026-0.0001398606    9        13
     T2        AB    0.0000000003-0.0003859570   12   12   13   13
 -------------------------------------------------------------------
 The total correlation energy is -0.623798767534 a.u.
 Convergence information after     6 iterations: 
 Largest element of residual vector : -0.38595695E-03.
 Largest element of DIIS residual   : -0.29827437E-03.
 Iteration Nr.   6 required (CPU/WALL):               10.00/      11.39 seconds.
 >>>>>>>>>>>>>>>>>>>>>>>>>>>>>>>>>>>>>>>>>>>>>>>>>>>>>>>>>>>>>>>>>>>>>>>>>>>>>>>
 Iteration Nr.   7 started:
 Generation of Intermediates required (CPU/WALL):      0.86/       1.27 seconds.
 Transformation of t(ab,ij) amplitudes required    0.0 seconds.
 Contraction of t(mu nu,ij) with AO integrals required    8.0 seconds.
 Backtransformation of t(mu nu,ij) increments required    0.1 seconds.
 Construction of Hbar required (CPU/WALL):             8.70/       9.42 seconds.
   Frozen core orbitals in analytic derivative calculation
 Amplitude changes are:
 -------------------------------------------------------------------
              Spin      RMS          Max.      Max. change for
  Amplitude   Case     Change       Change       i    j    a    b
 -------------------------------------------------------------------
     T1        AA    0.0000000844-0.0000832018   12        17
     T2        AB    0.0000000001-0.0002064793   12   12   13   13
 -------------------------------------------------------------------
 The total correlation energy is -0.623801173582 a.u.
 Convergence information after     7 iterations: 
 Largest element of residual vector : -0.20647927E-03.
 Largest element of DIIS residual   : -0.16203822E-03.
 Iteration Nr.   7 required (CPU/WALL):               10.07/      11.56 seconds.
 >>>>>>>>>>>>>>>>>>>>>>>>>>>>>>>>>>>>>>>>>>>>>>>>>>>>>>>>>>>>>>>>>>>>>>>>>>>>>>>
 Iteration Nr.   8 started:
 Generation of Intermediates required (CPU/WALL):      0.86/       1.28 seconds.
 Transformation of t(ab,ij) amplitudes required    0.0 seconds.
 Contraction of t(mu nu,ij) with AO integrals required    8.0 seconds.
 Backtransformation of t(mu nu,ij) increments required    0.1 seconds.
 Construction of Hbar required (CPU/WALL):             8.73/       9.32 seconds.
   Frozen core orbitals in analytic derivative calculation
 Amplitude changes are:
 -------------------------------------------------------------------
              Spin      RMS          Max.      Max. change for
  Amplitude   Case     Change       Change       i    j    a    b
 -------------------------------------------------------------------
     T1        AA    0.0000000320-0.0000251889   12        14
     T2        AB    0.0000000001-0.0001150434   12   12   13   13
 -------------------------------------------------------------------
 The total correlation energy is -0.623802630438 a.u.
 Convergence information after     8 iterations: 
 Largest element of residual vector : -0.11504343E-03.
 Largest element of DIIS residual   : -0.67249212E-04.
 Iteration Nr.   8 required (CPU/WALL):               10.10/      11.48 seconds.
 >>>>>>>>>>>>>>>>>>>>>>>>>>>>>>>>>>>>>>>>>>>>>>>>>>>>>>>>>>>>>>>>>>>>>>>>>>>>>>>
 Iteration Nr.   9 started:
 Generation of Intermediates required (CPU/WALL):      0.86/       1.29 seconds.
 Transformation of t(ab,ij) amplitudes required    0.0 seconds.
 Contraction of t(mu nu,ij) with AO integrals required    8.0 seconds.
 Backtransformation of t(mu nu,ij) increments required    0.1 seconds.
 Construction of Hbar required (CPU/WALL):             8.70/       9.32 seconds.
   Frozen core orbitals in analytic derivative calculation
 Amplitude changes are:
 -------------------------------------------------------------------
              Spin      RMS          Max.      Max. change for
[...]

 H #4 x   -0.106019   -0.038846    0.113658   -0.015637   -0.012979    0.018820
 H #4 y   -0.039738   -0.078467    0.070056    0.003471    0.005860   -0.011664
 H #4 z    0.111062    0.069285   -0.221808   -0.002441    0.000130    0.002374

 H #5 x   -0.054876   -0.043452   -0.000000   -0.006376    0.038418    0.000000
 H #5 y   -0.035562   -0.312669   -0.000000    0.003209   -0.023825   -0.000000
 H #5 z   -0.000000   -0.000000   -0.052722   -0.000000    0.000000    0.005398

 O #6 x   -0.087059   -0.041149   -0.000000   -0.419221   -0.270685    0.000000
 O #6 y   -0.007339    0.034852   -0.000000   -0.308291   -0.349021   -0.000000
 O #6 z   -0.000000   -0.000000    0.008768    0.000000   -0.000000   -0.004865


           H #3 x      H #3 y      H #3 z      H #4 x      H #4 y      H #4 z

 H #3 x    0.119463
 H #3 y    0.043906    0.075224
 H #3 z    0.119515    0.075621    0.239158

 H #4 x    0.010592    0.004538   -0.014244    0.119463
 H #4 y    0.004538    0.002294   -0.008523    0.043907    0.075224
 H #4 z    0.014244    0.008523   -0.020630   -0.119515   -0.075621    0.239158

 H #5 x   -0.001027   -0.014553    0.002498   -0.001027   -0.014553   -0.002498
 H #5 y   -0.000227   -0.005131    0.001702   -0.000227   -0.005131   -0.001702
 H #5 z   -0.001956   -0.025313    0.002145    0.001956    0.025313    0.002145

 O #6 x   -0.007372    0.002376    0.000852   -0.007372    0.002376   -0.000852
 O #6 y    0.003608    0.000220    0.000614    0.003608    0.000220   -0.000614
 O #6 z    0.000675   -0.000438   -0.001240   -0.000675    0.000438   -0.001240


           H #5 x      H #5 y      H #5 z      O #6 x      O #6 y      O #6 z

 H #5 x    0.054949
 H #5 y    0.036805    0.338818
 H #5 z    0.000000    0.000000    0.046364

 O #6 x    0.008357   -0.003997    0.000000    0.512668
 O #6 y   -0.002664    0.007937    0.000000    0.311079    0.305792
 O #6 z   -0.000000    0.000000   -0.003331   -0.000000    0.000000    0.001907




                           Total dipole moment
                           -------------------

                               au             Debye

                    x      0.86098776      2.18841297
                    y     -0.19221394     -0.48855919
                    z      0.00000002      0.00000005

  Conversion factor used: 1 a.u. =   2.54174691 Debye 



                     Total dipole moment derivatives
                     -------------------------------

                              Ex             Ey             Ez

               C #1 x    -0.24169745     0.11158162    -0.00000004
               C #1 y     0.21146078     0.16235673     0.00000003
               C #1 z    -0.00000013     0.00000001     0.25506189

               N #2 x     0.80562772    -0.09263792     0.00000003
               N #2 y     0.01950773    -0.02135038    -0.00000003
               N #2 z     0.00000003     0.00000003    -0.21399636

               H #3 x     0.04211309     0.00095219    -0.00321721
               H #3 y     0.02369529     0.05003781    -0.07169584
               H #3 z    -0.06885747    -0.04001019    -0.01295400

               H #4 x     0.04211306     0.00095217     0.00321726
               H #4 y     0.02369521     0.05003772     0.07169587
               H #4 z     0.06885754     0.04001023    -0.01295391

               H #5 x    -0.01121136    -0.07152682    -0.00000003
               H #5 y     0.05753057    -0.07547294    -0.00000004
               H #5 z     0.00000003    -0.00000005     0.07027277

               O #6 x    -0.63694506     0.05067874    -0.00000001
               O #6 y    -0.33588958    -0.16560893     0.00000000
               O #6 z    -0.00000001    -0.00000002    -0.08543039



 @CHECKOUT-I, Total execution time (CPU/WALL):      101.52/     102.41 seconds.
--executable xvdint finished with status     0 in      102.42 seconds (walltime).
 --invoking executable--
/home/orgChemistry/bin/cfour_v21/bin/xjoda
  igrd and ihes are                      0                     0
  gradient from JOBARC 
   0.000000010630143  -0.000000000329714   0.000000000143646
   0.000000153996121   0.000000274492437  -0.000000002801633
   0.000000084725999   0.000000045724783   0.000000122729061
   0.000000082711840   0.000000046285639  -0.000000120696455
  -0.000000014126248  -0.000000147333221  -0.000000000739223
  -0.000000317937789  -0.000000218839907   0.000000001364602
 
  masses used (in AMU) in vibrational analysis: 
  12.000000000     14.003074002      1.007825035
   1.007825035      1.007825035     15.994914630
                     Normal Coordinate Analysis
  ----------------------------------------------------------------
    Irreducible         Harmonic       Infrared        Type 
   Representation       Frequency      Intensity 
  ----------------------------------------------------------------
                       (cm-1)         (km/mol)
  ----------------------------------------------------------------
      ----                 0.3603i        0.6293      TRANSLATION
      ----                 0.1614i        0.1240      TRANSLATION
      ----                 0.0786i        0.1507      TRANSLATION
      ----                 0.5325         3.9532       ROTATION  
      ----                 0.5935         4.3958       ROTATION  
      ----                 1.0813         0.8673       ROTATION  
         A               148.9009         0.8463       VIBRATION 
         A               575.8486         1.9543       VIBRATION 
         A               866.6716        14.0770       VIBRATION 
         A               980.8961         3.0815       VIBRATION 
         A              1154.5066        15.7184       VIBRATION 
         A              1379.6436        14.2680       VIBRATION 
         A              1465.0091        22.6350       VIBRATION 
         A              1469.4174         9.3995       VIBRATION 
         A              1595.3956        40.7177       VIBRATION 
         A              3038.3511         3.3710       VIBRATION 
         A              3130.5434         4.8520       VIBRATION 
         A              3152.6651         9.1600       VIBRATION 
  ----------------------------------------------------------------
 
 
                                   Normal Coordinates 

                 A                         A                         A
               148.90                    575.85                    866.67 
             VIBRATION                 VIBRATION                 VIBRATION 
 C      0.000-0.0000 -0.0049    0.4242  0.0260  0.0000    0.5958 -0.1296 -0.0000
 N      0.000-0.0000  0.4210    0.0330 -0.4122 -0.0000   -0.4988  0.3649  0.0000
 H      0.294 0.3161 -0.3099    0.0261  0.1908 -0.0099    0.2235 -0.2250  0.0380
 H     -0.294-0.3161 -0.3099    0.0261  0.1908  0.0099    0.2235 -0.2250 -0.0380
 H     -0.000-0.0000  0.3850    0.4657 -0.0373 -0.0000   -0.1022 -0.0043  0.0000
 O      0.000 0.0000 -0.3308   -0.5283  0.2768  0.0000   -0.1359 -0.1152 -0.0000

                 A                         A                         A
               980.90                   1154.51                   1379.64 
             VIBRATION                 VIBRATION                 VIBRATION 
 C      0.000 0.0000 -0.4032    0.0948  0.4650  0.0000    0.3782 -0.1547  0.0000
 N     -0.000-0.0000  0.2515    0.2612 -0.3622 -0.0000   -0.0608 -0.0501  0.0000
 H     -0.518 0.2376  0.1246    0.1433 -0.2372  0.0676   -0.4438  0.2386  0.2185
 H      0.518-0.2376  0.1246    0.1433 -0.2372 -0.0676   -0.4438  0.2386 -0.2185
 H      0.000-0.0000  0.3022   -0.5519  0.2014  0.0000   -0.4639  0.0306 -0.0000
 O     -0.000-0.0000 -0.0245   -0.2599  0.0047 -0.0000    0.0685  0.0534  0.0000

                 A                         A                         A
              1465.01                   1469.42                   1595.40 
             VIBRATION                 VIBRATION                 VIBRATION 
 C      0.006-0.2145 -0.0000    0.0000  0.0000 -0.2135    0.0318 -0.0390 -0.0000
 N      0.073 0.0585 -0.0000   -0.0000 -0.0000 -0.0250    0.5352  0.4942 -0.0000
 H      0.289 0.4151 -0.3453    0.0977 -0.4501  0.0701   -0.1189 -0.0077  0.0794
 H      0.289 0.4151  0.3453   -0.0977  0.4501  0.0701   -0.1189 -0.0077 -0.0794
 H     -0.417 0.0075  0.0000    0.0000 -0.0000  0.7208    0.0879 -0.0157  0.0000
 O     -0.115-0.0792 -0.0000    0.0000  0.0000 -0.0078   -0.4907 -0.4208  0.0000

                 A                         A                         A
              3038.35                   3130.54                   3152.67 
             VIBRATION                 VIBRATION                 VIBRATION 
 C      0.136-0.0640  0.0000    0.0000  0.0000  0.3043    0.1367  0.2840 -0.0000
 N      0.001-0.0010  0.0000    0.0000  0.0000  0.0013    0.0043  0.0062 -0.0000
 H     -0.274-0.1766 -0.4619   -0.3419 -0.2171 -0.5380   -0.1890 -0.1121 -0.3275
 H     -0.274-0.1766  0.4619    0.3419  0.2171 -0.5380   -0.1890 -0.1121  0.3275
 H      0.078 0.5760  0.0000   -0.0000 -0.0000  0.0164   -0.0978 -0.7615 -0.0000
 O     -0.001 0.0005 -0.0000   -0.0000 -0.0000  0.0012   -0.0030 -0.0043 -0.0000
            Gradient vector in normal coordinate representation
         ----------------------------------------------------------
   i    W(I)     dE/dQ(i)     dE/dq      dE/dq     [dE/dQ(i)]/w(i)
                              (cm-1)      (eV)        (relative)
         ----------------------------------------------------------
    7   148.90 -0.0000000009     -0.00018     -0.00000   0.0000000000
    8   575.85  0.0000000176      0.00177      0.00000   0.0000000000
    9   866.67  0.0000000531      0.00435      0.00000   0.0000000000
   10   980.90 -0.0000000014     -0.00010     -0.00000   0.0000000000
   11  1154.51  0.0000000016      0.00011      0.00000   0.0000000000
   12  1379.64 -0.0000000105     -0.00068     -0.00000   0.0000000000
   13  1465.01  0.0000000283      0.00178      0.00000   0.0000000000
   14  1469.42  0.0000000001      0.00000      0.00000   0.0000000000
   15  1595.40  0.0000001202      0.00725      0.00000   0.0000000000
   16  3038.35 -0.0000002590     -0.01132     -0.00000   0.0000000000
   17  3130.54 -0.0000000017     -0.00007     -0.00000   0.0000000000
   18  3152.67 -0.0000000066     -0.00028     -0.00000   0.0000000000
         ----------------------------------------------------------
 
                      Normal modes in internal coordinates 
---------------------------------------------------------------------------
              0.360         0.161         0.079         0.532         0.593
---------------------------------------------------------------------------
R12        0.000000     -0.000000     -0.000000     -0.000000     -0.000000
R13        0.000000      0.000000      0.000000      0.000000     -0.000000
A213      -0.000000      0.000000     -0.000000     -0.000000      0.000001
R14       -0.000000      0.000000      0.000000     -0.000000      0.000000
A214      -0.000000     -0.000000     -0.000000      0.000000     -0.000000
D3214     -0.000000      0.000000      0.000000      0.000000     -0.000000
R15        0.000000     -0.000000     -0.000000     -0.000000     -0.000000
A215      -0.000000      0.000000      0.000000      0.000000     -0.000000
D3215     -0.000000      0.000000     -0.000000     -0.000000      0.000000
R26        0.000000      0.000000      0.000000      0.000000      0.000000
A126      -0.000000      0.000000      0.000000      0.000000      0.000000
D3126      0.000000     -0.000000      0.000000      0.000001     -0.000003
---------------------------------------------------------------------------
              1.081       148.901       575.849       866.672       980.896
---------------------------------------------------------------------------
R12       -0.000000     -0.000000      0.194694      0.790667      0.000000
R13        0.000000     -0.010554      0.005800     -0.006531      0.019787
A213      -0.000000      0.061456     -0.245614      0.171286     -0.583452
R14       -0.000000      0.010554      0.005800     -0.006531     -0.019787
A214       0.000000     -0.061456     -0.245615      0.171286      0.583452
D3214     -0.000000      0.000000      0.327241     -0.346576     -0.000000
R15        0.000000     -0.000000      0.010434      0.001569      0.000000
A215       0.000000      0.000000      0.479939     -0.338387      0.000000
D3215     -0.000001      0.106389      0.163621     -0.173288     -0.562265
R26       -0.000000     -0.000000     -0.018540      0.007063      0.000000
A126      -0.000000      0.000000      0.670783     -0.146123      0.000000
D3126      0.000009     -0.990406     -0.163620      0.173288      0.047355
---------------------------------------------------------------------------
           1154.507      1379.644      1465.009      1469.417      1595.396
---------------------------------------------------------------------------
R12       -0.242132      0.222951      0.024206     -0.000000     -0.124083
R13       -0.007324     -0.017210      0.016169      0.021421      0.003859
A213       0.291164     -0.545015     -0.001574      0.200582     -0.229524
R14       -0.007324     -0.017210      0.016169     -0.021421      0.003859
A214       0.291164     -0.545015     -0.001576     -0.200582     -0.229524
D3214     -0.505302     -0.233876      0.795229     -0.000007     -0.138118
R15        0.008024     -0.008065     -0.020715      0.000000     -0.012774
A215      -0.576944     -0.517056     -0.209637      0.000002      0.256792
D3215     -0.252651     -0.116938      0.397610     -0.916989     -0.069059
R26        0.070476     -0.076024      0.070690     -0.000001      0.867047
A126       0.225437      0.019454     -0.030535      0.000000     -0.180890
D3126      0.252651      0.116938     -0.397613      0.278833      0.069059
---------------------------------------------------------------------------
           3038.351      3130.543      3152.665
---------------------------------------------------------------------------
R12        0.042578     -0.000000     -0.003636
R13       -0.571422     -0.704596     -0.413503
A213      -0.016407      0.033402      0.024420
R14       -0.571421      0.704596     -0.413504
A214      -0.016407     -0.033402      0.024420
D3214      0.003747     -0.000000     -0.073699
R15       -0.586753      0.000001      0.803603
A215      -0.017375     -0.000000     -0.044931
D3215      0.001873      0.068987     -0.036849
R26        0.000335      0.000000      0.003033
A126       0.001134      0.000000      0.029505
D3126     -0.001873     -0.009947      0.036849
---------------------------------------------------------------------------
 
  ----------------------------------------------------------------
                    Dipole Moment Function
                   (Normal Coordinate Basis)
  ----------------------------------------------------------------
    Mode     Symmetry    d(Mu(x))/dQ   d(Mu(y))/dQ   d(Mu(z))/dQ
  ----------------------------------------------------------------
     Q7           A       -0.000000     -0.000000     -0.029464
     Q8           A        0.043062     -0.012261      0.000000
     Q9           A       -0.119829      0.008994     -0.000000
     Q10          A        0.000000      0.000000     -0.056222
     Q11          A        0.126375      0.012373      0.000000
     Q12          A       -0.113581      0.041654     -0.000000
     Q13          A        0.124075      0.088453      0.000001
     Q14          A       -0.000001     -0.000001      0.098193
     Q15          A        0.203571     -0.018069      0.000000
     Q16          A        0.051245     -0.028843      0.000000
     Q17          A       -0.000000      0.000000      0.070548
     Q18          A       -0.009178      0.096498     -0.000000
  ----------------------------------------------------------------
---------------------------------------------------------------------------
------------------------------------------------------------
        Parameter                (MHz)                 (CM-1)
------------------------------------------------------------
 
           R6                0.344749E-03           0.114996E-07
           R5                0.210094E-01           0.700797E-06
           SI                            0.813351E+02
 
  A-reduced centrifugal distortion parameters (Ir representation) 
 
           DJ                0.109566E-01           0.365473E-06
           DK                0.698283E+00           0.232922E-04
           DJK               0.540208E-01           0.180194E-05
           DELJ              0.102671E-01           0.342474E-06
           DELK              0.694835E+00           0.231772E-04
           DELJK             0.581578E-01           0.193994E-05
           delJ              0.150781E-02           0.502950E-07
           delK              -.154179E+00           -.514287E-05
 
  S-reduced centrifugal distortion parameters (Ir representation) 
 
           DJ                0.112149E-01           0.374089E-06
           DK                0.699574E+00           0.233353E-04
           DJK               0.524710E-01           0.175024E-05
           D1                -.150781E-02           -.502950E-07
           D2                0.473902E-03           0.158077E-07
------------------------------------------------------------
   Rotationally projected vibrational frequencies 
            1               0.3863i
            2               0.0463i
            3               0.1173 
            4               0.2224 
            5               0.3185 
            6               0.4962 
            7             148.9006 
            8             575.8486 
            9             866.6716 
           10             980.8961 
           11            1154.5066 
           12            1379.6436 
           13            1465.0091 
           14            1469.4174 
           15            1595.3956 
           16            3038.3511 
           17            3130.5434 
           18            3152.6651 
  Zero-point energy:   27.1032 kcal/mol =  113.4001 kJ/mol =    9479.502 cm-1 
 
  Finite temperature thermodynamic corrections:
=======================================================
Temperature     Entropy       Enthalpy     Gibbs Energy
    (K)        (J/(mol K))    (kJ/mol)      (kJ/mol) 
=======================================================
    298.15      260.4484       12.4432      -65.2095
    100.00      212.7150        3.5645      -17.7070
    200.00      241.3644        7.7269      -40.5460
    300.00      260.7712       12.5397      -65.6916
    400.00      277.0663       18.2262      -92.6004
    500.00      291.7537       24.8246     -121.0523
    600.00      305.2712       32.2504     -150.9123
    700.00      317.8065       40.3908     -182.0738
    800.00      329.4851       49.1430     -214.4451
    900.00      340.4074       58.4210     -247.9456
   1000.00      350.6571       68.1530     -282.5042
   1100.00      360.3043       78.2777     -318.0570
   1200.00      369.4083       88.7431     -354.5469
   1300.00      378.0203       99.5042     -391.9223
   1400.00      386.1846      110.5224     -430.1361
   1500.00      393.9403      121.7648     -469.1456
   1600.00      401.3217      133.2030     -508.9117
   1700.00      408.3595      144.8128     -549.3985
   1800.00      415.0812      156.5731     -590.5730
   1900.00      421.5112      168.4663     -632.4050
   2000.00      427.6716      180.4769     -674.8663
=======================================================
 @CHECKOUT-I, Total execution time (CPU/WALL):        0.03/       0.22 seconds.
--executable xjoda finished with status     0 in        0.24 seconds (walltime).
  The final electronic energy is      -169.543339366141936 a.u. 
  This computation required                        21929.16 seconds (walltime).

real	365m29.302s
user	282m14.141s
sys	38m32.038s
