 Entering Gaussian System, Link 0=/home/orgChemistry/bin/gaussian16-C.01/g16/g16
 Initial command:
 /home/orgChemistry/bin/gaussian16-C.01/g16/l1.exe "/scratch/agSchreiner/ruthm/139844/gaussian_iso2_NH3.iso2_NH3_b3lyp_6311_G_3df_3dp/Gau-253166.inp" -scrdir="/scratch/agSchreiner/ruthm/139844/gaussian_iso2_NH3.iso2_NH3_b3lyp_6311_G_3df_3dp/"
 Entering Link 1 = /home/orgChemistry/bin/gaussian16-C.01/g16/l1.exe PID=    253170.
  
 Copyright (c) 1988-2019, Gaussian, Inc.  All Rights Reserved.
  
 This is part of the Gaussian(R) 16 program.  It is based on
 the Gaussian(R) 09 system (copyright 2009, Gaussian, Inc.),
 the Gaussian(R) 03 system (copyright 2003, Gaussian, Inc.),
 the Gaussian(R) 98 system (copyright 1998, Gaussian, Inc.),
 the Gaussian(R) 94 system (copyright 1995, Gaussian, Inc.),
 the Gaussian 92(TM) system (copyright 1992, Gaussian, Inc.),
 the Gaussian 90(TM) system (copyright 1990, Gaussian, Inc.),
 the Gaussian 88(TM) system (copyright 1988, Gaussian, Inc.),
 the Gaussian 86(TM) system (copyright 1986, Carnegie Mellon
 University), and the Gaussian 82(TM) system (copyright 1983,
 Carnegie Mellon University). Gaussian is a federally registered
 trademark of Gaussian, Inc.
  
 This software contains proprietary and confidential information,
 including trade secrets, belonging to Gaussian, Inc.
  
 This software is provided under written license and may be
 used, copied, transmitted, or stored only in accord with that
 written license.
  
 The following legend is applicable only to US Government
 contracts under FAR:
  
                    RESTRICTED RIGHTS LEGEND
  
 Use, reproduction and disclosure by the US Government is
 subject to restrictions as set forth in subparagraphs (a)
 and (c) of the Commercial Computer Software - Restricted
 Rights clause in FAR 52.227-19.
  
 Gaussian, Inc.
 340 Quinnipiac St., Bldg. 40, Wallingford CT 06492
  
  
 ---------------------------------------------------------------
 Warning -- This program may not be used in any manner that
 competes with the business of Gaussian, Inc. or will provide
 assistance to any competitor of Gaussian, Inc.  The licensee
 of this program is prohibited from giving any competitor of
 Gaussian, Inc. access to this program.  By using this program,
 the user acknowledges that Gaussian, Inc. is engaged in the
 business of creating and licensing software in the field of
 computational chemistry and represents and warrants to the
 licensee that it is not a competitor of Gaussian, Inc. and that
 it will not use this program in any manner prohibited above.
 ---------------------------------------------------------------
  

 Cite this work as:
 Gaussian 16, Revision C.01,
 M. J. Frisch, G. W. Trucks, H. B. Schlegel, G. E. Scuseria, 
 M. A. Robb, J. R. Cheeseman, G. Scalmani, V. Barone, 
 G. A. Petersson, H. Nakatsuji, X. Li, M. Caricato, A. V. Marenich, 
 J. Bloino, B. G. Janesko, R. Gomperts, B. Mennucci, H. P. Hratchian, 
 J. V. Ortiz, A. F. Izmaylov, J. L. Sonnenberg, D. Williams-Young, 
 F. Ding, F. Lipparini, F. Egidi, J. Goings, B. Peng, A. Petrone, 
 T. Henderson, D. Ranasinghe, V. G. Zakrzewski, J. Gao, N. Rega, 
 G. Zheng, W. Liang, M. Hada, M. Ehara, K. Toyota, R. Fukuda, 
 J. Hasegawa, M. Ishida, T. Nakajima, Y. Honda, O. Kitao, H. Nakai, 
 T. Vreven, K. Throssell, J. A. Montgomery, Jr., J. E. Peralta, 
 F. Ogliaro, M. J. Bearpark, J. J. Heyd, E. N. Brothers, K. N. Kudin, 
 V. N. Staroverov, T. A. Keith, R. Kobayashi, J. Normand, 
 K. Raghavachari, A. P. Rendell, J. C. Burant, S. S. Iyengar, 
 J. Tomasi, M. Cossi, J. M. Millam, M. Klene, C. Adamo, R. Cammi, 
 J. W. Ochterski, R. L. Martin, K. Morokuma, O. Farkas, 
 J. B. Foresman, and D. J. Fox, Gaussian, Inc., Wallingford CT, 2019.
 
 ******************************************
 Gaussian 16:  ES64L-G16RevC.01  3-Jul-2019
                26-Jan-2021 
 ******************************************
 %Chk=file_name
 %NProcShared=24
 Will use up to   24 processors via shared memory.
 %mem=48000mb
 -------------------------------------------
 #p b3lyp/6-311++G(3df,3pd) opt freq=noraman
 -------------------------------------------
 1/18=20,19=15,26=3,38=1/1,3;
 2/9=110,12=2,17=6,18=5,40=1/2;
 3/5=4,6=6,7=1616,11=2,25=1,30=1,71=1,74=-5/1,2,3;
 4//1;
 5/5=2,38=5/2;
 6/7=2,8=2,9=2,10=2,28=1/1;
 7//1,2,3,16;
 1/18=20,19=15,26=3/3(2);
 2/9=110/2;
 99//99;
 2/9=110/2;
 3/5=4,6=6,7=1616,11=2,25=1,30=1,71=1,74=-5/1,2,3;
 4/5=5,16=3,69=1/1;
 5/5=2,38=5/2;
 7//1,2,3,16;
 1/18=20,19=15,26=3/3(-5);
 2/9=110/2;
 6/7=2,8=2,9=2,10=2,19=2,28=1/1;
 99/9=1/99;
 Leave Link    1 at Tue Jan 26 00:24:28 2021, MaxMem=  6291456000 cpu:               3.8 elap:               0.3
 (Enter /home/orgChemistry/bin/gaussian16-C.01/g16/l101.exe)
 -----
 title
 -----
 Symbolic Z-matrix:
 Charge =  0 Multiplicity = 1
 7                    -3.44921   2.72852  -0.6365 
 1                    -2.43188   2.76228  -0.5889 
 1                    -3.76081   3.69788  -0.67654 
 1                    -3.76081   2.37038   0.26517 
 
 ITRead=  0  0  0  0
 MicOpt= -1 -1 -1 -1
 NAtoms=      4 NQM=        4 NQMF=       0 NMMI=      0 NMMIF=      0
                NMic=       0 NMicF=      0.
                    Isotopes and Nuclear Properties:
 (Nuclear quadrupole moments (NQMom) in fm**2, nuclear magnetic moments (NMagM)
  in nuclear magnetons)

  Atom         1           2           3           4
 IAtWgt=          14           1           1           1
 AtmWgt=  14.0030740   1.0078250   1.0078250   1.0078250
 NucSpn=           2           1           1           1
 AtZEff=  -0.0000000  -0.0000000  -0.0000000  -0.0000000
 NQMom=    2.0440000   0.0000000   0.0000000   0.0000000
 NMagM=    0.4037610   2.7928460   2.7928460   2.7928460
 AtZNuc=   7.0000000   1.0000000   1.0000000   1.0000000
 Leave Link  101 at Tue Jan 26 00:24:31 2021, MaxMem=  6291456000 cpu:               8.2 elap:               0.4
 (Enter /home/orgChemistry/bin/gaussian16-C.01/g16/l103.exe)

 GradGradGradGradGradGradGradGradGradGradGradGradGradGradGradGradGradGrad
 Berny optimization.
 Initialization pass.
                           ----------------------------
                           !    Initial Parameters    !
                           ! (Angstroms and Degrees)  !
 --------------------------                            --------------------------
 ! Name  Definition              Value          Derivative Info.                !
 --------------------------------------------------------------------------------
 ! R1    R(1,2)                  1.019          estimate D2E/DX2                !
 ! R2    R(1,3)                  1.019          estimate D2E/DX2                !
 ! R3    R(1,4)                  1.019          estimate D2E/DX2                !
 ! A1    A(2,1,3)              105.998          estimate D2E/DX2                !
 ! A2    A(2,1,4)              105.998          estimate D2E/DX2                !
 ! A3    A(3,1,4)              105.998          estimate D2E/DX2                !
 ! D1    D(2,1,4,3)            112.3622         estimate D2E/DX2                !
 --------------------------------------------------------------------------------
 Trust Radius=3.00D-01 FncErr=1.00D-07 GrdErr=1.00D-06 EigMax=2.50D+02 EigMin=1.00D-04
 Number of steps in this run=     20 maximum allowed number of steps=    100.
 GradGradGradGradGradGradGradGradGradGradGradGradGradGradGradGradGradGrad

 Leave Link  103 at Tue Jan 26 00:24:34 2021, MaxMem=  6291456000 cpu:               1.3 elap:               0.3
 (Enter /home/orgChemistry/bin/gaussian16-C.01/g16/l202.exe)
                          Input orientation:                          
 ---------------------------------------------------------------------
 Center     Atomic      Atomic             Coordinates (Angstroms)
 Number     Number       Type             X           Y           Z
 ---------------------------------------------------------------------
      1          7           0       -3.449207    2.728519   -0.636500
      2          1           0       -2.431879    2.762281   -0.588904
      3          1           0       -3.760805    3.697882   -0.676543
      4          1           0       -3.760808    2.370382    0.265167
 ---------------------------------------------------------------------
                    Distance matrix (angstroms):
                    1          2          3          4
     1  N    0.000000
     2  H    1.019000   0.000000
     3  H    1.019000   1.627598   0.000000
     4  H    1.019000   1.627598   1.627598   0.000000
 Stoichiometry    H3N
 Framework group  C3V[C3(N),3SGV(H)]
 Deg. of freedom     2
 Full point group                 C3V     NOp   6
 Largest Abelian subgroup         CS      NOp   2
 Largest concise Abelian subgroup CS      NOp   2
                         Standard orientation:                         
 ---------------------------------------------------------------------
 Center     Atomic      Atomic             Coordinates (Angstroms)
 Number     Number       Type             X           Y           Z
 ---------------------------------------------------------------------
      1          7           0        0.000000   -0.000000    0.118238
      2          1           0       -0.000000    0.939694   -0.275889
      3          1           0        0.813799   -0.469847   -0.275889
      4          1           0       -0.813799   -0.469847   -0.275889
 ---------------------------------------------------------------------
 Rotational constants (GHZ):         293.6272762         293.6272762         189.2944538
 Leave Link  202 at Tue Jan 26 00:24:36 2021, MaxMem=  6291456000 cpu:               2.6 elap:               0.2
 (Enter /home/orgChemistry/bin/gaussian16-C.01/g16/l301.exe)
 Standard basis: 6-311++G(3df,3pd) (5D, 7F)
 Ernie: Thresh=  0.10000D-02 Tol=  0.10000D-05 Strict=F.
 There are    64 symmetry adapted cartesian basis functions of A'  symmetry.
 There are    38 symmetry adapted cartesian basis functions of A"  symmetry.
 There are    57 symmetry adapted basis functions of A'  symmetry.
 There are    36 symmetry adapted basis functions of A"  symmetry.
    93 basis functions,   121 primitive gaussians,   102 cartesian basis functions
     5 alpha electrons        5 beta electrons
       nuclear repulsion energy        11.8808998867 Hartrees.
 IExCor=  402 DFT=T Ex+Corr=B3LYP ExCW=0 ScaHFX=  0.200000
 ScaDFX=  0.800000  0.720000  1.000000  0.810000 ScalE2=  1.000000  1.000000
 IRadAn=      5 IRanWt=     -1 IRanGd=            0 ICorTp=0 IEmpDi=  4
 NAtoms=    4 NActive=    4 NUniq=    2 SFac= 4.00D+00 NAtFMM=   60 NAOKFM=F Big=F
 Integral buffers will be    131072 words long.
 Raffenetti 2 integral format.
 Two-electron integral symmetry is turned on.
 Leave Link  301 at Tue Jan 26 00:24:40 2021, MaxMem=  6291456000 cpu:               1.5 elap:               0.2
 (Enter /home/orgChemistry/bin/gaussian16-C.01/g16/l302.exe)
 NPDir=0 NMtPBC=     1 NCelOv=     1 NCel=       1 NClECP=     1 NCelD=      1
         NCelK=      1 NCelE2=     1 NClLst=     1 CellRange=     0.0.
 One-electron integrals computed using PRISM.
 One-electron integral symmetry used in STVInt
 NBasis=    93 RedAO= T EigKep=  4.14D-04  NBF=    57    36
 NBsUse=    93 1.00D-06 EigRej= -1.00D+00 NBFU=    57    36
 Precomputing XC quadrature grid using
 IXCGrd= 4 IRadAn=           5 IRanWt=          -1 IRanGd=           0 AccXCQ= 0.00D+00.
 Generated NRdTot=       0 NPtTot=           0 NUsed=           0 NTot=          32
 NSgBfM=   102   102   102   102   102 MxSgAt=     4 MxSgA2=     4.
 Leave Link  302 at Tue Jan 26 00:24:43 2021, MaxMem=  6291456000 cpu:               6.5 elap:               0.5
 (Enter /home/orgChemistry/bin/gaussian16-C.01/g16/l303.exe)
 DipDrv:  MaxL=1.
 Leave Link  303 at Tue Jan 26 00:24:47 2021, MaxMem=  6291456000 cpu:               3.2 elap:               0.3
 (Enter /home/orgChemistry/bin/gaussian16-C.01/g16/l401.exe)
 ExpMin= 3.60D-02 ExpMax= 6.29D+03 ExpMxC= 9.49D+02 IAcc=3 IRadAn=         5 AccDes= 0.00D+00
 Harris functional with IExCor=  402 and IRadAn=       5 diagonalized for initial guess.
 HarFok:  IExCor=  402 AccDes= 0.00D+00 IRadAn=         5 IDoV= 1 UseB2=F ITyADJ=14
 ICtDFT=  3500011 ScaDFX=  1.000000  1.000000  1.000000  1.000000
 FoFCou: FMM=F IPFlag=           0 FMFlag=      100000 FMFlg1=           0
         NFxFlg=           0 DoJE=T BraDBF=F KetDBF=T FulRan=T
         wScrn=  0.000000 ICntrl=       500 IOpCl=  0 I1Cent=   200000004 NGrid=           0
         NMat0=    1 NMatS0=      1 NMatT0=    0 NMatD0=    1 NMtDS0=    0 NMtDT0=    0
 Petite list used in FoFCou.
 Harris En= -56.6136462602955    
 JPrj=0 DoOrth=F DoCkMO=F.
 Initial guess orbital symmetries:
       Occupied  (A1) (A1) (E) (E) (A1)
       Virtual   (A1) (E) (E) (A1) (E) (E) (A1) (E) (E) (A1) (E)
                 (E) (E) (E) (A1) (A2) (E) (E) (A1) (A1) (A1) (E)
                 (E) (E) (E) (E) (E) (A1) (E) (E) (A1) (E) (E)
                 (A2) (A1) (E) (E) (E) (E) (A1) (A1) (E) (E) (A1)
                 (E) (E) (A1) (E) (E) (A2) (E) (E) (E) (E) (E)
                 (E) (A1) (A2) (E) (E) (A1) (A1) (E) (E) (A1) (A1)
                 (E) (E) (E) (E) (A2) (E) (E) (E) (E) (A2) (A1)
                 (E) (E) (E) (E) (A1) (A1) (E) (E) (E) (E) (A1)
 The electronic state of the initial guess is 1-A1.
 Leave Link  401 at Tue Jan 26 00:24:50 2021, MaxMem=  6291456000 cpu:               5.1 elap:               0.5
 (Enter /home/orgChemistry/bin/gaussian16-C.01/g16/l502.exe)
 Keep R1 ints in memory in symmetry-blocked form, NReq=31803493.
 FoFCou: FMM=F IPFlag=           0 FMFlag=           0 FMFlg1=           0
         NFxFlg=           0 DoJE=F BraDBF=F KetDBF=F FulRan=T
         wScrn=  0.000000 ICntrl=       600 IOpCl=  0 I1Cent=           0 NGrid=           0
         NMat0=    1 NMatS0=   4371 NMatT0=    0 NMatD0=    1 NMtDS0=    0 NMtDT0=    0
 Petite list used in FoFCou.
 Closed shell SCF:
 Using DIIS extrapolation, IDIIS=  1040.
 NGot=  6291456000 LenX=  6286625115 LenY=  6286614270
 Requested convergence on RMS density matrix=1.00D-08 within 128 cycles.
 Requested convergence on MAX density matrix=1.00D-06.
 Requested convergence on             energy=1.00D-06.
 No special actions if energy rises.

 Cycle   1  Pass 1  IDiag  1:
 E= -56.4962840205031    
 DIIS: error= 4.48D-02 at cycle   1 NSaved=   1.
 NSaved= 1 IEnMin= 1 EnMin= -56.4962840205031     IErMin= 1 ErrMin= 4.48D-02
 ErrMax= 4.48D-02  0.00D+00 EMaxC= 1.00D-01 BMatC= 1.18D-01 BMatP= 1.18D-01
 IDIUse=3 WtCom= 5.52D-01 WtEn= 4.48D-01
 Coeff-Com:  0.100D+01
 Coeff-En:   0.100D+01
 Coeff:      0.100D+01
 Gap=     0.108 Goal=   None    Shift=    0.000
 GapD=    0.108 DampG=1.000 DampE=0.500 DampFc=0.5000 IDamp=-1.
 Damping current iteration by 5.00D-01
 RMSDP=5.39D-03 MaxDP=1.37D-01              OVMax= 2.94D-01

 Cycle   2  Pass 1  IDiag  1:
 E= -56.5181630172478     Delta-E=       -0.021878996745 Rises=F Damp=T
 DIIS: error= 1.44D-02 at cycle   2 NSaved=   2.
 NSaved= 2 IEnMin= 2 EnMin= -56.5181630172478     IErMin= 2 ErrMin= 1.44D-02
 ErrMax= 1.44D-02  0.00D+00 EMaxC= 1.00D-01 BMatC= 1.04D-02 BMatP= 1.18D-01
 IDIUse=3 WtCom= 8.56D-01 WtEn= 1.44D-01
 Coeff-Com:  0.207D+00 0.793D+00
 Coeff-En:   0.383D+00 0.617D+00
 Coeff:      0.233D+00 0.767D+00
 Gap=     0.250 Goal=   None    Shift=    0.000
 RMSDP=1.20D-03 MaxDP=2.97D-02 DE=-2.19D-02 OVMax= 1.97D-01

 Cycle   3  Pass 1  IDiag  1:
 E= -56.5873816431658     Delta-E=       -0.069218625918 Rises=F Damp=F
 DIIS: error= 1.06D-03 at cycle   3 NSaved=   3.
 NSaved= 3 IEnMin= 3 EnMin= -56.5873816431658     IErMin= 3 ErrMin= 1.06D-03
 ErrMax= 1.06D-03  0.00D+00 EMaxC= 1.00D-01 BMatC= 4.90D-05 BMatP= 1.04D-02
 IDIUse=3 WtCom= 9.89D-01 WtEn= 1.06D-02
 Coeff-Com: -0.408D-02 0.319D-01 0.972D+00
 Coeff-En:   0.000D+00 0.000D+00 0.100D+01
 Coeff:     -0.404D-02 0.316D-01 0.972D+00
 Gap=     0.260 Goal=   None    Shift=    0.000
 RMSDP=7.43D-05 MaxDP=1.89D-03 DE=-6.92D-02 OVMax= 3.46D-03

 Cycle   4  Pass 1  IDiag  1:
 E= -56.5874337093177     Delta-E=       -0.000052066152 Rises=F Damp=F
 DIIS: error= 3.59D-04 at cycle   4 NSaved=   4.
 NSaved= 4 IEnMin= 4 EnMin= -56.5874337093177     IErMin= 4 ErrMin= 3.59D-04
 ErrMax= 3.59D-04  0.00D+00 EMaxC= 1.00D-01 BMatC= 6.22D-06 BMatP= 4.90D-05
 IDIUse=3 WtCom= 9.96D-01 WtEn= 3.59D-03
 Coeff-Com:  0.385D-02-0.540D-02 0.863D-01 0.915D+00
 Coeff-En:   0.000D+00 0.000D+00 0.000D+00 0.100D+01
 Coeff:      0.383D-02-0.538D-02 0.860D-01 0.916D+00
 Gap=     0.261 Goal=   None    Shift=    0.000
 RMSDP=2.52D-05 MaxDP=5.08D-04 DE=-5.21D-05 OVMax= 1.04D-03

 Cycle   5  Pass 1  IDiag  1:
 E= -56.5874393186352     Delta-E=       -0.000005609318 Rises=F Damp=F
 DIIS: error= 4.47D-05 at cycle   5 NSaved=   5.
 NSaved= 5 IEnMin= 5 EnMin= -56.5874393186352     IErMin= 5 ErrMin= 4.47D-05
 ErrMax= 4.47D-05  0.00D+00 EMaxC= 1.00D-01 BMatC= 7.49D-08 BMatP= 6.22D-06
 IDIUse=1 WtCom= 1.00D+00 WtEn= 0.00D+00
 Coeff-Com:  0.117D-02-0.220D-02 0.965D-02 0.226D+00 0.766D+00
 Coeff:      0.117D-02-0.220D-02 0.965D-02 0.226D+00 0.766D+00
 Gap=     0.261 Goal=   None    Shift=    0.000
 RMSDP=1.56D-06 MaxDP=3.81D-05 DE=-5.61D-06 OVMax= 1.01D-04

 Cycle   6  Pass 1  IDiag  1:
 E= -56.5874393797413     Delta-E=       -0.000000061106 Rises=F Damp=F
 DIIS: error= 4.89D-06 at cycle   6 NSaved=   6.
 NSaved= 6 IEnMin= 6 EnMin= -56.5874393797413     IErMin= 6 ErrMin= 4.89D-06
 ErrMax= 4.89D-06  0.00D+00 EMaxC= 1.00D-01 BMatC= 4.36D-10 BMatP= 7.49D-08
 IDIUse=1 WtCom= 1.00D+00 WtEn= 0.00D+00
 Coeff-Com: -0.385D-04-0.412D-04 0.505D-03-0.780D-02 0.496D-01 0.958D+00
 Coeff:     -0.385D-04-0.412D-04 0.505D-03-0.780D-02 0.496D-01 0.958D+00
 Gap=     0.261 Goal=   None    Shift=    0.000
 RMSDP=4.50D-07 MaxDP=1.07D-05 DE=-6.11D-08 OVMax= 1.49D-05

 Cycle   7  Pass 1  IDiag  1:
 E= -56.5874393802317     Delta-E=       -0.000000000490 Rises=F Damp=F
 DIIS: error= 1.86D-07 at cycle   7 NSaved=   7.
 NSaved= 7 IEnMin= 7 EnMin= -56.5874393802317     IErMin= 7 ErrMin= 1.86D-07
 ErrMax= 1.86D-07  0.00D+00 EMaxC= 1.00D-01 BMatC= 1.24D-12 BMatP= 4.36D-10
 IDIUse=1 WtCom= 1.00D+00 WtEn= 0.00D+00
 Coeff-Com: -0.569D-05 0.105D-04-0.109D-03-0.819D-03-0.745D-02-0.476D-01
 Coeff-Com:  0.106D+01
 Coeff:     -0.569D-05 0.105D-04-0.109D-03-0.819D-03-0.745D-02-0.476D-01
 Coeff:      0.106D+01
 Gap=     0.261 Goal=   None    Shift=    0.000
 RMSDP=4.22D-08 MaxDP=1.05D-06 DE=-4.90D-10 OVMax= 1.30D-06

 Cycle   8  Pass 1  IDiag  1:
 E= -56.5874393802338     Delta-E=       -0.000000000002 Rises=F Damp=F
 DIIS: error= 4.30D-08 at cycle   8 NSaved=   8.
 NSaved= 8 IEnMin= 8 EnMin= -56.5874393802338     IErMin= 8 ErrMin= 4.30D-08
 ErrMax= 4.30D-08  0.00D+00 EMaxC= 1.00D-01 BMatC= 7.67D-14 BMatP= 1.24D-12
 IDIUse=1 WtCom= 1.00D+00 WtEn= 0.00D+00
 Coeff-Com:  0.266D-07 0.827D-06-0.112D-04 0.963D-04-0.409D-03-0.634D-02
 Coeff-Com:  0.199D-01 0.987D+00
 Coeff:      0.266D-07 0.827D-06-0.112D-04 0.963D-04-0.409D-03-0.634D-02
 Coeff:      0.199D-01 0.987D+00
 Gap=     0.261 Goal=   None    Shift=    0.000
 RMSDP=2.13D-09 MaxDP=6.34D-08 DE=-2.16D-12 OVMax= 9.69D-08

 SCF Done:  E(RB3LYP) =  -56.5874393802     A.U. after    8 cycles
            NFock=  8  Conv=0.21D-08     -V/T= 2.0050
 KE= 5.630563312320D+01 PE=-1.558509909873D+02 EE= 3.107701859719D+01
 Leave Link  502 at Tue Jan 26 00:24:54 2021, MaxMem=  6291456000 cpu:              14.8 elap:               0.9
 (Enter /home/orgChemistry/bin/gaussian16-C.01/g16/l601.exe)
 Copying SCF densities to generalized density rwf, IOpCl= 0 IROHF=0.

 **********************************************************************

            Population analysis using the SCF Density.

 **********************************************************************

 Orbital symmetries:
       Occupied  (A1) (A1) (E) (E) (A1)
       Virtual   (A1) (E) (E) (A1) (E) (E) (A1) (E) (E) (A1) (E)
                 (E) (E) (E) (A1) (A2) (E) (E) (A1) (A1) (E) (E)
                 (A1) (E) (E) (E) (E) (A1) (E) (E) (A1) (E) (E)
                 (A2) (A1) (E) (E) (E) (E) (A1) (E) (E) (A1) (A1)
                 (E) (E) (A1) (E) (E) (A2) (E) (E) (E) (E) (E)
                 (E) (A1) (A2) (E) (E) (A1) (A1) (E) (E) (A1) (E)
                 (E) (A1) (E) (E) (A2) (E) (E) (E) (E) (A2) (A1)
                 (E) (E) (E) (E) (A1) (A1) (E) (E) (E) (E) (A1)
 The electronic state is 1-A1.
 Alpha  occ. eigenvalues --  -14.29794  -0.85688  -0.46459  -0.46459  -0.27745
 Alpha virt. eigenvalues --   -0.01620   0.03319   0.03319   0.09973   0.12769
 Alpha virt. eigenvalues --    0.12769   0.13984   0.19043   0.19043   0.21417
 Alpha virt. eigenvalues --    0.28890   0.28890   0.38417   0.38417   0.42039
 Alpha virt. eigenvalues --    0.52369   0.55225   0.55225   0.55649   0.67384
 Alpha virt. eigenvalues --    0.70970   0.70970   0.74706   0.78970   0.78970
 Alpha virt. eigenvalues --    0.89897   0.89897   0.96415   1.01776   1.01776
 Alpha virt. eigenvalues --    1.44213   1.80794   1.80794   1.82057   1.85691
 Alpha virt. eigenvalues --    1.95111   1.95111   2.10919   2.10919   2.27053
 Alpha virt. eigenvalues --    2.56153   2.56153   2.56340   2.83487   2.89346
 Alpha virt. eigenvalues --    2.89346   3.00208   3.03479   3.03479   3.10794
 Alpha virt. eigenvalues --    3.22973   3.22973   3.28377   3.28377   3.67593
 Alpha virt. eigenvalues --    3.67593   3.78023   3.81976   4.04764   4.04764
 Alpha virt. eigenvalues --    4.43073   4.53934   4.56893   4.56893   5.00526
 Alpha virt. eigenvalues --    5.17871   5.17871   5.20389   5.30943   5.30943
 Alpha virt. eigenvalues --    5.45745   6.07809   6.07809   8.29199   8.29199
 Alpha virt. eigenvalues --    8.37673   8.38749   8.47335   8.47335   9.21527
 Alpha virt. eigenvalues --    9.21527   9.22427  10.81650  10.91185  10.91185
 Alpha virt. eigenvalues --   11.71082  11.71082  37.16795
          Condensed to atoms (all electrons):
               1          2          3          4
     1  N    7.163595   0.271206   0.271206   0.271206
     2  H    0.271206   0.483884  -0.040414  -0.040414
     3  H    0.271206  -0.040414   0.483884  -0.040414
     4  H    0.271206  -0.040414  -0.040414   0.483884
 Mulliken charges:
               1
     1  N   -0.977214
     2  H    0.325738
     3  H    0.325738
     4  H    0.325738
 Sum of Mulliken charges =  -0.00000
 Mulliken charges with hydrogens summed into heavy atoms:
               1
     1  N   -0.000000
 Electronic spatial extent (au):  <R**2>=             27.2377
 Charge=              0.0000 electrons
 Dipole moment (field-independent basis, Debye):
    X=             -0.0000    Y=             -0.0000    Z=             -1.5687  Tot=              1.5687
 Quadrupole moment (field-independent basis, Debye-Ang):
   XX=             -6.4200   YY=             -6.4200   ZZ=             -9.5046
   XY=             -0.0000   XZ=              0.0000   YZ=              0.0000
 Traceless Quadrupole moment (field-independent basis, Debye-Ang):
   XX=              1.0282   YY=              1.0282   ZZ=             -2.0564
   XY=             -0.0000   XZ=              0.0000   YZ=              0.0000
 Octapole moment (field-independent basis, Debye-Ang**2):
  XXX=             -0.0000  YYY=              0.9324  ZZZ=             -1.3262  XYY=             -0.0000
  XXY=             -0.9324  XXZ=             -0.8780  XZZ=             -0.0000  YZZ=             -0.0000
  YYZ=             -0.8780  XYZ=             -0.0000
 Hexadecapole moment (field-independent basis, Debye-Ang**3):
 XXXX=            -10.8089 YYYY=            -10.8089 ZZZZ=            -13.9037 XXXY=              0.0000
 XXXZ=             -0.0000 YYYX=              0.0000 YYYZ=             -0.3470 ZZZX=             -0.0000
 ZZZY=             -0.0000 XXYY=             -3.6030 XXZZ=             -4.2351 YYZZ=             -4.2351
 XXYZ=              0.3470 YYXZ=             -0.0000 ZZXY=              0.0000
 N-N= 1.188089988668D+01 E-N=-1.558509896091D+02  KE= 5.630563312320D+01
 Symmetry A'   KE= 5.362363179581D+01
 Symmetry A"   KE= 2.682001327392D+00
 No NMR shielding tensors so no spin-rotation constants.
 Leave Link  601 at Tue Jan 26 00:24:57 2021, MaxMem=  6291456000 cpu:              10.9 elap:               0.6
 (Enter /home/orgChemistry/bin/gaussian16-C.01/g16/l701.exe)
 ... and contract with generalized density number  0.
 Compute integral first derivatives.
 Leave Link  701 at Tue Jan 26 00:25:00 2021, MaxMem=  6291456000 cpu:               9.5 elap:               0.5
 (Enter /home/orgChemistry/bin/gaussian16-C.01/g16/l702.exe)
 L702 exits ... SP integral derivatives will be done elsewhere.
 Leave Link  702 at Tue Jan 26 00:25:02 2021, MaxMem=  6291456000 cpu:               0.8 elap:               0.1
 (Enter /home/orgChemistry/bin/gaussian16-C.01/g16/l703.exe)
 Integral derivatives from FoFJK, PRISM(SPDF).
 Compute integral first derivatives, UseDBF=F ICtDFT=           0.
 Calling FoFJK, ICntrl=      2127 FMM=F ISym2X=1 I1Cent= 0 IOpClX= 0 NMat=1 NMatS=1 NMatT=0.
 FoFJK:  IHMeth= 1 ICntrl=    2127 DoSepK=F KAlg= 0 I1Cent=           0 FoldK=F
 IRaf=         0 NMat=       1 IRICut=       1 DoRegI=T DoRafI=F ISym2E= 1 IDoP0=0 IntGTp=1.
 FoFCou: FMM=F IPFlag=           0 FMFlag=      100000 FMFlg1=         800
         NFxFlg=           0 DoJE=F BraDBF=F KetDBF=F FulRan=T
         wScrn=  0.000000 ICntrl=      2127 IOpCl=  0 I1Cent=           0 NGrid=           0
         NMat0=    1 NMatS0=      1 NMatT0=    0 NMatD0=    1 NMtDS0=    0 NMtDT0=    0
 Petite list used in FoFCou.
 Leave Link  703 at Tue Jan 26 00:25:06 2021, MaxMem=  6291456000 cpu:              17.8 elap:               0.9
 (Enter /home/orgChemistry/bin/gaussian16-C.01/g16/l716.exe)
 Dipole        =-6.66133815D-16-8.88178420D-16-6.17166284D-01
 ***** Axes restored to original set *****
 -------------------------------------------------------------------
 Center     Atomic                   Forces (Hartrees/Bohr)
 Number     Number              X              Y              Z
 -------------------------------------------------------------------
      1        7           0.002260094    0.003698626    0.005213844
      2        1          -0.003356183   -0.000700432   -0.000987388
      3        1           0.000548040   -0.003449113   -0.000729913
      4        1           0.000548049    0.000450919   -0.003496544
 -------------------------------------------------------------------
 Cartesian Forces:  Max     0.005213844 RMS     0.002648278
 Leave Link  716 at Tue Jan 26 00:25:08 2021, MaxMem=  6291456000 cpu:               0.7 elap:               0.2
 (Enter /home/orgChemistry/bin/gaussian16-C.01/g16/l103.exe)

 GradGradGradGradGradGradGradGradGradGradGradGradGradGradGradGradGradGrad
 Berny optimization.
 FormGI is forming the generalized inverse of G from B-inverse, IUseBI=4.
 Internal  Forces:  Max     0.003420002 RMS     0.002383115
 Search for a local minimum.
 Step number   1 out of a maximum of   20
 All quantities printed in internal units (Hartrees-Bohrs-Radians)
 RMS Force = .23831D-02 SwitMx=.10000D-02 MixMth= 1
 Mixed Optimization -- RFO/linear search
 Second derivative matrix not updated -- first step.
 The second derivative matrix:
                          R1        R2        R3        A1        A2
           R1           0.44498
           R2           0.00000   0.44498
           R3           0.00000   0.00000   0.44498
           A1           0.00000   0.00000   0.00000   0.16000
           A2           0.00000   0.00000   0.00000   0.00000   0.16000
           A3           0.00000   0.00000   0.00000   0.00000   0.00000
           D1           0.00000   0.00000   0.00000   0.00000   0.00000
                          A3        D1
           A3           0.16000
           D1           0.00000   0.00777
 ITU=  0
     Eigenvalues ---    0.06562   0.16000   0.16000   0.44498   0.44498
     Eigenvalues ---    0.44498
 RFO step:  Lambda=-1.33291315D-04 EMin= 6.56153888D-02
 Linear search not attempted -- first point.
 Iteration  1 RMS(Cart)=  0.00635246 RMS(Int)=  0.00011324
 Iteration  2 RMS(Cart)=  0.00007667 RMS(Int)=  0.00008019
 Iteration  3 RMS(Cart)=  0.00000000 RMS(Int)=  0.00008019
 ITry= 1 IFail=0 DXMaxC= 1.13D-02 DCOld= 1.00D+10 DXMaxT= 3.00D-01 DXLimC= 3.00D+00 Rises=F
 ClnCor:  largest displacement from symmetrization is 4.10D-04 for atom     4.
 Variable       Old X    -DE/DX   Delta X   Delta X   Delta X     New X
                                 (Linear)    (Quad)   (Total)
    R1        1.92563  -0.00342   0.00000  -0.00768  -0.00779   1.91784
    R2        1.92563  -0.00342   0.00000  -0.00768  -0.00779   1.91784
    R3        1.92563  -0.00342   0.00000  -0.00768  -0.00779   1.91784
    A1        1.85001   0.00027   0.00000   0.00986   0.01019   1.86020
    A2        1.85001   0.00119   0.00000   0.01056   0.01019   1.86020
    A3        1.85001   0.00119   0.00000   0.01056   0.01019   1.86020
    D1        1.96109   0.00132   0.00000   0.02013   0.02052   1.98161
         Item               Value     Threshold  Converged?
 Maximum Force            0.003420     0.000450     NO 
 RMS     Force            0.002383     0.000300     NO 
 Maximum Displacement     0.011185     0.001800     NO 
 RMS     Displacement     0.006343     0.001200     NO 
 Predicted change in Energy=-6.705702D-05
 Lowest energy point so far.  Saving SCF results.
 GradGradGradGradGradGradGradGradGradGradGradGradGradGradGradGradGradGrad

 Leave Link  103 at Tue Jan 26 00:25:09 2021, MaxMem=  6291456000 cpu:               1.8 elap:               0.1
 (Enter /home/orgChemistry/bin/gaussian16-C.01/g16/l202.exe)
                          Input orientation:                          
 ---------------------------------------------------------------------
 Center     Atomic      Atomic             Coordinates (Angstroms)
 Number     Number       Type             X           Y           Z
 ---------------------------------------------------------------------
      1          7           0       -3.446641    2.732718   -0.630581
      2          1           0       -2.432938    2.760934   -0.590803
      3          1           0       -3.761550    3.696314   -0.678422
      4          1           0       -3.761553    2.369128    0.263066
 ---------------------------------------------------------------------
                    Distance matrix (angstroms):
                    1          2          3          4
     1  N    0.000000
     2  H    1.014876   0.000000
     3  H    1.014876   1.627213   0.000000
     4  H    1.014876   1.627213   1.627213   0.000000
 Stoichiometry    H3N
 Framework group  C3V[C3(N),3SGV(H)]
 Deg. of freedom     2
 Full point group                 C3V     NOp   6
 RotChk:  IX=0 Diff= 1.22D-15
 Largest Abelian subgroup         CS      NOp   2
 Largest concise Abelian subgroup CS      NOp   2
                         Standard orientation:                         
 ---------------------------------------------------------------------
 Center     Atomic      Atomic             Coordinates (Angstroms)
 Number     Number       Type             X           Y           Z
 ---------------------------------------------------------------------
      1          7           0        0.000000    0.000000    0.115165
      2          1           0        0.000000    0.939472   -0.268717
      3          1           0        0.813607   -0.469736   -0.268717
      4          1           0       -0.813607   -0.469736   -0.268717
 ---------------------------------------------------------------------
 Rotational constants (GHZ):         297.1581618         297.1581618         189.3839426
 Leave Link  202 at Tue Jan 26 00:25:09 2021, MaxMem=  6291456000 cpu:               1.3 elap:               0.1
 (Enter /home/orgChemistry/bin/gaussian16-C.01/g16/l301.exe)
 Standard basis: 6-311++G(3df,3pd) (5D, 7F)
 Ernie: Thresh=  0.10000D-02 Tol=  0.10000D-05 Strict=F.
 There are    64 symmetry adapted cartesian basis functions of A'  symmetry.
 There are    38 symmetry adapted cartesian basis functions of A"  symmetry.
 There are    57 symmetry adapted basis functions of A'  symmetry.
 There are    36 symmetry adapted basis functions of A"  symmetry.
    93 basis functions,   121 primitive gaussians,   102 cartesian basis functions
     5 alpha electrons        5 beta electrons
       nuclear repulsion energy        11.9254479479 Hartrees.
 IExCor=  402 DFT=T Ex+Corr=B3LYP ExCW=0 ScaHFX=  0.200000
 ScaDFX=  0.800000  0.720000  1.000000  0.810000 ScalE2=  1.000000  1.000000
 IRadAn=      5 IRanWt=     -1 IRanGd=            0 ICorTp=0 IEmpDi=  4
 NAtoms=    4 NActive=    4 NUniq=    2 SFac= 4.00D+00 NAtFMM=   60 NAOKFM=F Big=F
 Integral buffers will be    131072 words long.
 Raffenetti 2 integral format.
 Two-electron integral symmetry is turned on.
 Leave Link  301 at Tue Jan 26 00:25:09 2021, MaxMem=  6291456000 cpu:               1.5 elap:               0.1
 (Enter /home/orgChemistry/bin/gaussian16-C.01/g16/l302.exe)
 NPDir=0 NMtPBC=     1 NCelOv=     1 NCel=       1 NClECP=     1 NCelD=      1
         NCelK=      1 NCelE2=     1 NClLst=     1 CellRange=     0.0.
 One-electron integrals computed using PRISM.
 One-electron integral symmetry used in STVInt
 NBasis=    93 RedAO= T EigKep=  4.13D-04  NBF=    57    36
 NBsUse=    93 1.00D-06 EigRej= -1.00D+00 NBFU=    57    36
 Precomputing XC quadrature grid using
 IXCGrd= 4 IRadAn=           5 IRanWt=          -1 IRanGd=           0 AccXCQ= 0.00D+00.
 Generated NRdTot=       0 NPtTot=           0 NUsed=           0 NTot=          32
 NSgBfM=   102   102   102   102   102 MxSgAt=     4 MxSgA2=     4.
 Leave Link  302 at Tue Jan 26 00:25:09 2021, MaxMem=  6291456000 cpu:               7.0 elap:               0.5
 (Enter /home/orgChemistry/bin/gaussian16-C.01/g16/l303.exe)
 DipDrv:  MaxL=1.
 Leave Link  303 at Tue Jan 26 00:25:10 2021, MaxMem=  6291456000 cpu:               0.5 elap:               0.1
 (Enter /home/orgChemistry/bin/gaussian16-C.01/g16/l401.exe)
 Initial guess from the checkpoint file:  "file_name.chk"
 B after Tr=     0.000000    0.000000   -0.000000
         Rot=    1.000000   -0.000000   -0.000000    0.000000 Ang=   0.00 deg.
 Guess basis will be translated and rotated to current coordinates.
 JPrj=2 DoOrth=T DoCkMO=T.
 Initial guess orbital symmetries:
       Occupied  (A1) (A1) (E) (E) (A1)
       Virtual   (A1) (E) (E) (A1) (E) (E) (A1) (E) (E) (A1) (E)
                 (E) (E) (E) (A1) (A2) (E) (E) (A1) (A1) (E) (E)
                 (A1) (E) (E) (E) (E) (A1) (E) (E) (A1) (E) (E)
                 (A2) (A1) (E) (E) (E) (E) (A1) (E) (E) (A1) (A1)
                 (E) (E) (A1) (E) (E) (A2) (E) (E) (E) (E) (E)
                 (E) (A1) (A2) (E) (E) (A1) (A1) (E) (E) (A1) (E)
                 (E) (A1) (E) (E) (A2) (E) (E) (E) (E) (A2) (A1)
                 (E) (E) (E) (E) (A1) (A1) (E) (E) (E) (E) (A1)
 The electronic state of the initial guess is 1-A1.
 Leave Link  401 at Tue Jan 26 00:25:10 2021, MaxMem=  6291456000 cpu:               2.7 elap:               0.1
 (Enter /home/orgChemistry/bin/gaussian16-C.01/g16/l502.exe)
 Keep R1 ints in memory in symmetry-blocked form, NReq=31803493.
 FoFCou: FMM=F IPFlag=           0 FMFlag=           0 FMFlg1=           0
         NFxFlg=           0 DoJE=F BraDBF=F KetDBF=F FulRan=T
         wScrn=  0.000000 ICntrl=       600 IOpCl=  0 I1Cent=           0 NGrid=           0
         NMat0=    1 NMatS0=   4371 NMatT0=    0 NMatD0=    1 NMtDS0=    0 NMtDT0=    0
 Petite list used in FoFCou.
 Closed shell SCF:
 Using DIIS extrapolation, IDIIS=  1040.
 NGot=  6291456000 LenX=  6286625115 LenY=  6286614270
 Requested convergence on RMS density matrix=1.00D-08 within 128 cycles.
 Requested convergence on MAX density matrix=1.00D-06.
 Requested convergence on             energy=1.00D-06.
 No special actions if energy rises.

 Cycle   1  Pass 1  IDiag  1:
 E= -56.5874920899721    
 DIIS: error= 7.14D-04 at cycle   1 NSaved=   1.
 NSaved= 1 IEnMin= 1 EnMin= -56.5874920899721     IErMin= 1 ErrMin= 7.14D-04
 ErrMax= 7.14D-04  0.00D+00 EMaxC= 1.00D-01 BMatC= 5.15D-05 BMatP= 5.15D-05
 IDIUse=3 WtCom= 9.93D-01 WtEn= 7.14D-03
 Coeff-Com:  0.100D+01
 Coeff-En:   0.100D+01
 Coeff:      0.100D+01
 Gap=     0.262 Goal=   None    Shift=    0.000
 RMSDP=8.48D-05 MaxDP=2.86D-03              OVMax= 3.27D-03

 Cycle   2  Pass 1  IDiag  1:
 E= -56.5875243090792     Delta-E=       -0.000032219107 Rises=F Damp=F
 DIIS: error= 4.09D-04 at cycle   2 NSaved=   2.
 NSaved= 2 IEnMin= 2 EnMin= -56.5875243090792     IErMin= 2 ErrMin= 4.09D-04
 ErrMax= 4.09D-04  0.00D+00 EMaxC= 1.00D-01 BMatC= 6.28D-06 BMatP= 5.15D-05
 IDIUse=3 WtCom= 9.96D-01 WtEn= 4.09D-03
 Coeff-Com:  0.144D+00 0.856D+00
 Coeff-En:   0.000D+00 0.100D+01
 Coeff:      0.143D+00 0.857D+00
 Gap=     0.260 Goal=   None    Shift=    0.000
 RMSDP=2.92D-05 MaxDP=1.03D-03 DE=-3.22D-05 OVMax= 1.58D-03

 Cycle   3  Pass 1  IDiag  1:
 E= -56.5875234984282     Delta-E=        0.000000810651 Rises=F Damp=F
 DIIS: error= 4.01D-04 at cycle   3 NSaved=   3.
 NSaved= 3 IEnMin= 2 EnMin= -56.5875243090792     IErMin= 3 ErrMin= 4.01D-04
 ErrMax= 4.01D-04  0.00D+00 EMaxC= 1.00D-01 BMatC= 7.25D-06 BMatP= 6.28D-06
 IDIUse=3 WtCom= 3.33D-01 WtEn= 6.67D-01
 Coeff-Com: -0.102D-02 0.519D+00 0.482D+00
 Coeff-En:   0.000D+00 0.533D+00 0.467D+00
 Coeff:     -0.339D-03 0.528D+00 0.472D+00
 Gap=     0.260 Goal=   None    Shift=    0.000
 RMSDP=1.40D-05 MaxDP=4.77D-04 DE= 8.11D-07 OVMax= 8.39D-04

 Cycle   4  Pass 1  IDiag  1:
 E= -56.5875292471538     Delta-E=       -0.000005748726 Rises=F Damp=F
 DIIS: error= 4.10D-05 at cycle   4 NSaved=   4.
 NSaved= 4 IEnMin= 4 EnMin= -56.5875292471538     IErMin= 4 ErrMin= 4.10D-05
 ErrMax= 4.10D-05  0.00D+00 EMaxC= 1.00D-01 BMatC= 2.96D-08 BMatP= 6.28D-06
 IDIUse=1 WtCom= 1.00D+00 WtEn= 0.00D+00
 Coeff-Com: -0.488D-02 0.113D+00 0.120D+00 0.772D+00
 Coeff:     -0.488D-02 0.113D+00 0.120D+00 0.772D+00
 Gap=     0.260 Goal=   None    Shift=    0.000
 RMSDP=2.50D-06 MaxDP=6.20D-05 DE=-5.75D-06 OVMax= 8.85D-05

 Cycle   5  Pass 1  IDiag  1:
 E= -56.5875292735710     Delta-E=       -0.000000026417 Rises=F Damp=F
 DIIS: error= 5.32D-06 at cycle   5 NSaved=   5.
 NSaved= 5 IEnMin= 5 EnMin= -56.5875292735710     IErMin= 5 ErrMin= 5.32D-06
 ErrMax= 5.32D-06  0.00D+00 EMaxC= 1.00D-01 BMatC= 7.63D-10 BMatP= 2.96D-08
 IDIUse=1 WtCom= 1.00D+00 WtEn= 0.00D+00
 Coeff-Com: -0.240D-03-0.706D-02-0.652D-02 0.108D+00 0.906D+00
 Coeff:     -0.240D-03-0.706D-02-0.652D-02 0.108D+00 0.906D+00
 Gap=     0.260 Goal=   None    Shift=    0.000
 RMSDP=1.43D-07 MaxDP=2.14D-06 DE=-2.64D-08 OVMax= 1.07D-05

 Cycle   6  Pass 1  IDiag  1:
 E= -56.5875292741927     Delta-E=       -0.000000000622 Rises=F Damp=F
 DIIS: error= 3.92D-07 at cycle   6 NSaved=   6.
 NSaved= 6 IEnMin= 6 EnMin= -56.5875292741927     IErMin= 6 ErrMin= 3.92D-07
 ErrMax= 3.92D-07  0.00D+00 EMaxC= 1.00D-01 BMatC= 5.24D-12 BMatP= 7.63D-10
 IDIUse=1 WtCom= 1.00D+00 WtEn= 0.00D+00
 Coeff-Com:  0.586D-04-0.175D-02-0.923D-03-0.552D-02-0.566D-02 0.101D+01
 Coeff:      0.586D-04-0.175D-02-0.923D-03-0.552D-02-0.566D-02 0.101D+01
 Gap=     0.260 Goal=   None    Shift=    0.000
 RMSDP=5.30D-08 MaxDP=1.17D-06 DE=-6.22D-10 OVMax= 1.53D-06

 Cycle   7  Pass 1  IDiag  1:
 E= -56.5875292741979     Delta-E=       -0.000000000005 Rises=F Damp=F
 DIIS: error= 1.46D-08 at cycle   7 NSaved=   7.
 NSaved= 7 IEnMin= 7 EnMin= -56.5875292741979     IErMin= 7 ErrMin= 1.46D-08
 ErrMax= 1.46D-08  0.00D+00 EMaxC= 1.00D-01 BMatC= 4.67D-15 BMatP= 5.24D-12
 IDIUse=1 WtCom= 1.00D+00 WtEn= 0.00D+00
 Coeff-Com: -0.315D-05 0.162D-03 0.893D-04-0.284D-04-0.456D-02-0.749D-01
 Coeff-Com:  0.108D+01
 Coeff:     -0.315D-05 0.162D-03 0.893D-04-0.284D-04-0.456D-02-0.749D-01
 Coeff:      0.108D+01
 Gap=     0.260 Goal=   None    Shift=    0.000
 RMSDP=3.50D-09 MaxDP=7.97D-08 DE=-5.17D-12 OVMax= 1.62D-07

 SCF Done:  E(RB3LYP) =  -56.5875292742     A.U. after    7 cycles
            NFock=  7  Conv=0.35D-08     -V/T= 2.0047
 KE= 5.632143215159D+01 PE=-1.559498790106D+02 EE= 3.111546963693D+01
 Leave Link  502 at Tue Jan 26 00:25:10 2021, MaxMem=  6291456000 cpu:              14.3 elap:               0.7
 (Enter /home/orgChemistry/bin/gaussian16-C.01/g16/l701.exe)
 ... and contract with generalized density number  0.
 Compute integral first derivatives.
 Leave Link  701 at Tue Jan 26 00:25:11 2021, MaxMem=  6291456000 cpu:               3.1 elap:               0.2
 (Enter /home/orgChemistry/bin/gaussian16-C.01/g16/l702.exe)
 L702 exits ... SP integral derivatives will be done elsewhere.
 Leave Link  702 at Tue Jan 26 00:25:11 2021, MaxMem=  6291456000 cpu:               0.5 elap:               0.0
 (Enter /home/orgChemistry/bin/gaussian16-C.01/g16/l703.exe)
 Integral derivatives from FoFJK, PRISM(SPDF).
 Compute integral first derivatives, UseDBF=F ICtDFT=           0.
 Calling FoFJK, ICntrl=      2127 FMM=F ISym2X=1 I1Cent= 0 IOpClX= 0 NMat=1 NMatS=1 NMatT=0.
 FoFJK:  IHMeth= 1 ICntrl=    2127 DoSepK=F KAlg= 0 I1Cent=           0 FoldK=F
 IRaf=         0 NMat=       1 IRICut=       1 DoRegI=T DoRafI=F ISym2E= 1 IDoP0=0 IntGTp=1.
 FoFCou: FMM=F IPFlag=           0 FMFlag=      100000 FMFlg1=         800
         NFxFlg=           0 DoJE=F BraDBF=F KetDBF=F FulRan=T
         wScrn=  0.000000 ICntrl=      2127 IOpCl=  0 I1Cent=           0 NGrid=           0
         NMat0=    1 NMatS0=      1 NMatT0=    0 NMatD0=    1 NMtDS0=    0 NMtDT0=    0
 Petite list used in FoFCou.
 Leave Link  703 at Tue Jan 26 00:25:11 2021, MaxMem=  6291456000 cpu:              14.7 elap:               0.7
 (Enter /home/orgChemistry/bin/gaussian16-C.01/g16/l716.exe)
 Dipole        =-8.88178420D-16-6.66133815D-16-6.07141740D-01
 ***** Axes restored to original set *****
 -------------------------------------------------------------------
 Center     Atomic                   Forces (Hartrees/Bohr)
 Number     Number              X              Y              Z
 -------------------------------------------------------------------
      1        7           0.000776664    0.001271004    0.001791697
      2        1          -0.000578530   -0.000358281   -0.000505059
      3        1          -0.000099067   -0.000695836   -0.000473440
      4        1          -0.000099066   -0.000216888   -0.000813199
 -------------------------------------------------------------------
 Cartesian Forces:  Max     0.001791697 RMS     0.000794946
 Leave Link  716 at Tue Jan 26 00:25:11 2021, MaxMem=  6291456000 cpu:               0.9 elap:               0.1
 (Enter /home/orgChemistry/bin/gaussian16-C.01/g16/l103.exe)

 GradGradGradGradGradGradGradGradGradGradGradGradGradGradGradGradGradGrad
 Berny optimization.
 Using GEDIIS/GDIIS optimizer.
 FormGI is forming the generalized inverse of G from B-inverse, IUseBI=4.
 Internal  Forces:  Max     0.000781256 RMS     0.000616408
 Search for a local minimum.
 Step number   2 out of a maximum of   20
 All quantities printed in internal units (Hartrees-Bohrs-Radians)
 RMS Force = .61641D-03 SwitMx=.10000D-02 MixMth= 2
 Mixed Optimization -- En-DIIS/RFO-DIIS
 Update second derivatives using D2CorX and points    1    2
 DE= -8.99D-05 DEPred=-6.71D-05 R= 1.34D+00
 TightC=F SS=  1.41D+00  RLast= 3.02D-02 DXNew= 5.0454D-01 9.0735D-02
 Trust test= 1.34D+00 RLast= 3.02D-02 DXMaxT set to 3.00D-01
 The second derivative matrix:
                          R1        R2        R3        A1        A2
           R1           0.44461
           R2          -0.00037   0.44461
           R3          -0.00037  -0.00037   0.44461
           A1           0.03816   0.03816   0.03816   0.14037
           A2           0.02584   0.02584   0.02584  -0.01908   0.14317
           A3           0.02584   0.02584   0.02584  -0.01908  -0.01683
           D1          -0.01309  -0.01309  -0.01309  -0.00117   0.00120
                          A3        D1
           A3           0.14317
           D1           0.00120   0.01090
 ITU=  1  0
 Use linear search instead of GDIIS.
     Eigenvalues ---    0.04406   0.15271   0.16000   0.44498   0.44498
     Eigenvalues ---    0.44869
 RFO step:  Lambda=-1.19490360D-05 EMin= 4.40601387D-02
 Quartic linear search produced a step of  0.51145.
 Iteration  1 RMS(Cart)=  0.00608313 RMS(Int)=  0.00012968
 Iteration  2 RMS(Cart)=  0.00005683 RMS(Int)=  0.00011473
 Iteration  3 RMS(Cart)=  0.00000000 RMS(Int)=  0.00011473
 ITry= 1 IFail=0 DXMaxC= 9.81D-03 DCOld= 1.00D+10 DXMaxT= 3.00D-01 DXLimC= 3.00D+00 Rises=F
 ClnCor:  largest displacement from symmetrization is 1.76D-04 for atom     4.
 Variable       Old X    -DE/DX   Delta X   Delta X   Delta X     New X
                                 (Linear)    (Quad)   (Total)
    R1        1.91784  -0.00061  -0.00399   0.00122  -0.00281   1.91502
    R2        1.91784  -0.00061  -0.00399   0.00122  -0.00281   1.91502
    R3        1.91784  -0.00061  -0.00399   0.00122  -0.00281   1.91502
    A1        1.86020   0.00014   0.00521   0.00447   0.00968   1.86989
    A2        1.86020   0.00068   0.00521   0.00469   0.00968   1.86989
    A3        1.86020   0.00068   0.00521   0.00469   0.00968   1.86989
    D1        1.98161   0.00078   0.01049   0.00935   0.02014   2.00175
         Item               Value     Threshold  Converged?
 Maximum Force            0.000781     0.000450     NO 
 RMS     Force            0.000616     0.000300     NO 
 Maximum Displacement     0.009740     0.001800     NO 
 RMS     Displacement     0.006051     0.001200     NO 
 Predicted change in Energy=-1.795446D-05
 Lowest energy point so far.  Saving SCF results.
 GradGradGradGradGradGradGradGradGradGradGradGradGradGradGradGradGradGrad

 Leave Link  103 at Tue Jan 26 00:25:12 2021, MaxMem=  6291456000 cpu:               0.8 elap:               0.1
 (Enter /home/orgChemistry/bin/gaussian16-C.01/g16/l202.exe)
                          Input orientation:                          
 ---------------------------------------------------------------------
 Center     Atomic      Atomic             Coordinates (Angstroms)
 Number     Number       Type             X           Y           Z
 ---------------------------------------------------------------------
      1          7           0       -3.444407    2.736374   -0.625427
      2          1           0       -2.431797    2.759334   -0.593058
      3          1           0       -3.763234    3.696702   -0.680863
      4          1           0       -3.763237    2.366695    0.262626
 ---------------------------------------------------------------------
                    Distance matrix (angstroms):
                    1          2          3          4
     1  N    0.000000
     2  H    1.013387   0.000000
     3  H    1.013387   1.630672   0.000000
     4  H    1.013387   1.630672   1.630672   0.000000
 Stoichiometry    H3N
 Framework group  C3V[C3(N),3SGV(H)]
 Deg. of freedom     2
 Full point group                 C3V     NOp   6
 RotChk:  IX=0 Diff= 6.37D-16
 Largest Abelian subgroup         CS      NOp   2
 Largest concise Abelian subgroup CS      NOp   2
                         Standard orientation:                         
 ---------------------------------------------------------------------
 Center     Atomic      Atomic             Coordinates (Angstroms)
 Number     Number       Type             X           Y           Z
 ---------------------------------------------------------------------
      1          7           0       -0.000000   -0.000000    0.112486
      2          1           0        0.000000    0.941469   -0.262467
      3          1           0        0.815336   -0.470735   -0.262467
      4          1           0       -0.815336   -0.470735   -0.262467
 ---------------------------------------------------------------------
 Rotational constants (GHZ):         299.1227096         299.1227096         188.5813315
 Leave Link  202 at Tue Jan 26 00:25:12 2021, MaxMem=  6291456000 cpu:               1.1 elap:               0.1
 (Enter /home/orgChemistry/bin/gaussian16-C.01/g16/l301.exe)
 Standard basis: 6-311++G(3df,3pd) (5D, 7F)
 Ernie: Thresh=  0.10000D-02 Tol=  0.10000D-05 Strict=F.
 There are    64 symmetry adapted cartesian basis functions of A'  symmetry.
 There are    38 symmetry adapted cartesian basis functions of A"  symmetry.
 There are    57 symmetry adapted basis functions of A'  symmetry.
 There are    36 symmetry adapted basis functions of A"  symmetry.
    93 basis functions,   121 primitive gaussians,   102 cartesian basis functions
     5 alpha electrons        5 beta electrons
       nuclear repulsion energy        11.9394632873 Hartrees.
 IExCor=  402 DFT=T Ex+Corr=B3LYP ExCW=0 ScaHFX=  0.200000
 ScaDFX=  0.800000  0.720000  1.000000  0.810000 ScalE2=  1.000000  1.000000
 IRadAn=      5 IRanWt=     -1 IRanGd=            0 ICorTp=0 IEmpDi=  4
 NAtoms=    4 NActive=    4 NUniq=    2 SFac= 4.00D+00 NAtFMM=   60 NAOKFM=F Big=F
 Integral buffers will be    131072 words long.
 Raffenetti 2 integral format.
 Two-electron integral symmetry is turned on.
 Leave Link  301 at Tue Jan 26 00:25:12 2021, MaxMem=  6291456000 cpu:               1.3 elap:               0.2
 (Enter /home/orgChemistry/bin/gaussian16-C.01/g16/l302.exe)
 NPDir=0 NMtPBC=     1 NCelOv=     1 NCel=       1 NClECP=     1 NCelD=      1
         NCelK=      1 NCelE2=     1 NClLst=     1 CellRange=     0.0.
 One-electron integrals computed using PRISM.
 One-electron integral symmetry used in STVInt
 NBasis=    93 RedAO= T EigKep=  4.16D-04  NBF=    57    36
 NBsUse=    93 1.00D-06 EigRej= -1.00D+00 NBFU=    57    36
 Precomputing XC quadrature grid using
 IXCGrd= 4 IRadAn=           5 IRanWt=          -1 IRanGd=           0 AccXCQ= 0.00D+00.
 Generated NRdTot=       0 NPtTot=           0 NUsed=           0 NTot=          32
 NSgBfM=   102   102   102   102   102 MxSgAt=     4 MxSgA2=     4.
 Leave Link  302 at Tue Jan 26 00:25:12 2021, MaxMem=  6291456000 cpu:               4.9 elap:               0.2
 (Enter /home/orgChemistry/bin/gaussian16-C.01/g16/l303.exe)
 DipDrv:  MaxL=1.
 Leave Link  303 at Tue Jan 26 00:25:12 2021, MaxMem=  6291456000 cpu:               1.1 elap:               0.1
 (Enter /home/orgChemistry/bin/gaussian16-C.01/g16/l401.exe)
 Initial guess from the checkpoint file:  "file_name.chk"
 B after Tr=    -0.000000   -0.000000   -0.000000
         Rot=    1.000000    0.000000   -0.000000   -0.000000 Ang=   0.00 deg.
 Guess basis will be translated and rotated to current coordinates.
 JPrj=2 DoOrth=T DoCkMO=T.
 Initial guess orbital symmetries:
       Occupied  (A1) (A1) (E) (E) (A1)
       Virtual   (A1) (E) (E) (A1) (E) (E) (A1) (E) (E) (A1) (E)
                 (E) (E) (E) (A1) (A2) (E) (E) (A1) (A1) (E) (E)
                 (A1) (E) (E) (E) (E) (A1) (E) (E) (A1) (E) (E)
                 (A2) (A1) (E) (E) (E) (E) (A1) (E) (E) (A1) (A1)
                 (E) (E) (A1) (E) (E) (A2) (E) (E) (E) (E) (E)
                 (E) (A1) (A2) (E) (E) (A1) (A1) (E) (E) (A1) (E)
                 (E) (A1) (E) (E) (A2) (E) (E) (E) (E) (A2) (A1)
                 (E) (E) (E) (E) (A1) (A1) (E) (E) (E) (E) (A1)
 The electronic state of the initial guess is 1-A1.
 Leave Link  401 at Tue Jan 26 00:25:13 2021, MaxMem=  6291456000 cpu:               8.5 elap:               0.4
 (Enter /home/orgChemistry/bin/gaussian16-C.01/g16/l502.exe)
 Keep R1 ints in memory in symmetry-blocked form, NReq=31803493.
 FoFCou: FMM=F IPFlag=           0 FMFlag=           0 FMFlg1=           0
         NFxFlg=           0 DoJE=F BraDBF=F KetDBF=F FulRan=T
         wScrn=  0.000000 ICntrl=       600 IOpCl=  0 I1Cent=           0 NGrid=           0
         NMat0=    1 NMatS0=   4371 NMatT0=    0 NMatD0=    1 NMtDS0=    0 NMtDT0=    0
 Petite list used in FoFCou.
 Closed shell SCF:
 Using DIIS extrapolation, IDIIS=  1040.
 NGot=  6291456000 LenX=  6286625115 LenY=  6286614270
 Requested convergence on RMS density matrix=1.00D-08 within 128 cycles.
 Requested convergence on MAX density matrix=1.00D-06.
 Requested convergence on             energy=1.00D-06.
 No special actions if energy rises.

 Cycle   1  Pass 1  IDiag  1:
 E= -56.5875240005273    
 DIIS: error= 8.51D-04 at cycle   1 NSaved=   1.
 NSaved= 1 IEnMin= 1 EnMin= -56.5875240005273     IErMin= 1 ErrMin= 8.51D-04
 ErrMax= 8.51D-04  0.00D+00 EMaxC= 1.00D-01 BMatC= 3.49D-05 BMatP= 3.49D-05
 IDIUse=3 WtCom= 9.91D-01 WtEn= 8.51D-03
 Coeff-Com:  0.100D+01
 Coeff-En:   0.100D+01
 Coeff:      0.100D+01
 Gap=     0.260 Goal=   None    Shift=    0.000
 RMSDP=8.48D-05 MaxDP=3.34D-03              OVMax= 2.68D-03

 Cycle   2  Pass 1  IDiag  1:
 E= -56.5875471245418     Delta-E=       -0.000023124014 Rises=F Damp=F
 DIIS: error= 1.31D-04 at cycle   2 NSaved=   2.
 NSaved= 2 IEnMin= 2 EnMin= -56.5875471245418     IErMin= 2 ErrMin= 1.31D-04
 ErrMax= 1.31D-04  0.00D+00 EMaxC= 1.00D-01 BMatC= 8.25D-07 BMatP= 3.49D-05
 IDIUse=3 WtCom= 9.99D-01 WtEn= 1.31D-03
 Coeff-Com:  0.115D-01 0.988D+00
 Coeff-En:   0.000D+00 0.100D+01
 Coeff:      0.115D-01 0.989D+00
 Gap=     0.259 Goal=   None    Shift=    0.000
 RMSDP=1.18D-05 MaxDP=3.80D-04 DE=-2.31D-05 OVMax= 5.25D-04

 Cycle   3  Pass 1  IDiag  1:
 E= -56.5875470669122     Delta-E=        0.000000057630 Rises=F Damp=F
 DIIS: error= 1.50D-04 at cycle   3 NSaved=   3.
 NSaved= 3 IEnMin= 2 EnMin= -56.5875471245418     IErMin= 2 ErrMin= 1.31D-04
 ErrMax= 1.50D-04  0.00D+00 EMaxC= 1.00D-01 BMatC= 8.41D-07 BMatP= 8.25D-07
 IDIUse=3 WtCom= 9.99D-01 WtEn= 1.50D-03
 Coeff-Com: -0.106D-01 0.508D+00 0.503D+00
 Coeff-En:   0.000D+00 0.524D+00 0.476D+00
 Coeff:     -0.106D-01 0.508D+00 0.503D+00
 Gap=     0.259 Goal=   None    Shift=    0.000
 RMSDP=5.51D-06 MaxDP=1.98D-04 DE= 5.76D-08 OVMax= 3.39D-04

 Cycle   4  Pass 1  IDiag  1:
 E= -56.5875476958325     Delta-E=       -0.000000628920 Rises=F Damp=F
 DIIS: error= 2.99D-05 at cycle   4 NSaved=   4.
 NSaved= 4 IEnMin= 4 EnMin= -56.5875476958325     IErMin= 4 ErrMin= 2.99D-05
 ErrMax= 2.99D-05  0.00D+00 EMaxC= 1.00D-01 BMatC= 5.06D-08 BMatP= 8.25D-07
 IDIUse=1 WtCom= 1.00D+00 WtEn= 0.00D+00
 Coeff-Com: -0.473D-02 0.123D+00 0.236D+00 0.646D+00
 Coeff:     -0.473D-02 0.123D+00 0.236D+00 0.646D+00
 Gap=     0.259 Goal=   None    Shift=    0.000
 RMSDP=2.00D-06 MaxDP=4.63D-05 DE=-6.29D-07 OVMax= 8.39D-05

 Cycle   5  Pass 1  IDiag  1:
 E= -56.5875477371551     Delta-E=       -0.000000041323 Rises=F Damp=F
 DIIS: error= 3.67D-06 at cycle   5 NSaved=   5.
 NSaved= 5 IEnMin= 5 EnMin= -56.5875477371551     IErMin= 5 ErrMin= 3.67D-06
 ErrMax= 3.67D-06  0.00D+00 EMaxC= 1.00D-01 BMatC= 3.71D-10 BMatP= 5.06D-08
 IDIUse=1 WtCom= 1.00D+00 WtEn= 0.00D+00
 Coeff-Com:  0.135D-03-0.138D-01 0.549D-02 0.905D-01 0.918D+00
 Coeff:      0.135D-03-0.138D-01 0.549D-02 0.905D-01 0.918D+00
 Gap=     0.259 Goal=   None    Shift=    0.000
 RMSDP=1.15D-07 MaxDP=2.27D-06 DE=-4.13D-08 OVMax= 7.28D-06

 Cycle   6  Pass 1  IDiag  1:
 E= -56.5875477374533     Delta-E=       -0.000000000298 Rises=F Damp=F
 DIIS: error= 1.87D-07 at cycle   6 NSaved=   6.
 NSaved= 6 IEnMin= 6 EnMin= -56.5875477374533     IErMin= 6 ErrMin= 1.87D-07
 ErrMax= 1.87D-07  0.00D+00 EMaxC= 1.00D-01 BMatC= 1.30D-12 BMatP= 3.71D-10
 IDIUse=1 WtCom= 1.00D+00 WtEn= 0.00D+00
 Coeff-Com:  0.447D-04-0.150D-02-0.104D-02-0.440D-02 0.658D-02 0.100D+01
 Coeff:      0.447D-04-0.150D-02-0.104D-02-0.440D-02 0.658D-02 0.100D+01
 Gap=     0.259 Goal=   None    Shift=    0.000
 RMSDP=3.50D-08 MaxDP=7.91D-07 DE=-2.98D-10 OVMax= 8.83D-07

 Cycle   7  Pass 1  IDiag  1:
 E= -56.5875477374548     Delta-E=       -0.000000000002 Rises=F Damp=F
 DIIS: error= 1.01D-08 at cycle   7 NSaved=   7.
 NSaved= 7 IEnMin= 7 EnMin= -56.5875477374548     IErMin= 7 ErrMin= 1.01D-08
 ErrMax= 1.01D-08  0.00D+00 EMaxC= 1.00D-01 BMatC= 3.61D-15 BMatP= 1.30D-12
 IDIUse=1 WtCom= 1.00D+00 WtEn= 0.00D+00
 Coeff-Com: -0.358D-05 0.197D-03 0.429D-04-0.269D-03-0.874D-02-0.486D-01
 Coeff-Com:  0.106D+01
 Coeff:     -0.358D-05 0.197D-03 0.429D-04-0.269D-03-0.874D-02-0.486D-01
 Coeff:      0.106D+01
 Gap=     0.259 Goal=   None    Shift=    0.000
 RMSDP=2.33D-09 MaxDP=5.39D-08 DE=-1.55D-12 OVMax= 1.13D-07

 SCF Done:  E(RB3LYP) =  -56.5875477375     A.U. after    7 cycles
            NFock=  7  Conv=0.23D-08     -V/T= 2.0047
 KE= 5.632513997861D+01 PE=-1.559809872704D+02 EE= 3.112883626701D+01
 Leave Link  502 at Tue Jan 26 00:25:13 2021, MaxMem=  6291456000 cpu:              13.4 elap:               0.6
 (Enter /home/orgChemistry/bin/gaussian16-C.01/g16/l701.exe)
 ... and contract with generalized density number  0.
 Compute integral first derivatives.
 Leave Link  701 at Tue Jan 26 00:25:13 2021, MaxMem=  6291456000 cpu:               2.9 elap:               0.2
 (Enter /home/orgChemistry/bin/gaussian16-C.01/g16/l702.exe)
 L702 exits ... SP integral derivatives will be done elsewhere.
 Leave Link  702 at Tue Jan 26 00:25:13 2021, MaxMem=  6291456000 cpu:               0.7 elap:               0.1
 (Enter /home/orgChemistry/bin/gaussian16-C.01/g16/l703.exe)
 Integral derivatives from FoFJK, PRISM(SPDF).
 Compute integral first derivatives, UseDBF=F ICtDFT=           0.
 Calling FoFJK, ICntrl=      2127 FMM=F ISym2X=1 I1Cent= 0 IOpClX= 0 NMat=1 NMatS=1 NMatT=0.
 FoFJK:  IHMeth= 1 ICntrl=    2127 DoSepK=F KAlg= 0 I1Cent=           0 FoldK=F
 IRaf=         0 NMat=       1 IRICut=       1 DoRegI=T DoRafI=F ISym2E= 1 IDoP0=0 IntGTp=1.
 FoFCou: FMM=F IPFlag=           0 FMFlag=      100000 FMFlg1=         800
         NFxFlg=           0 DoJE=F BraDBF=F KetDBF=F FulRan=T
         wScrn=  0.000000 ICntrl=      2127 IOpCl=  0 I1Cent=           0 NGrid=           0
         NMat0=    1 NMatS0=      1 NMatT0=    0 NMatD0=    1 NMtDS0=    0 NMtDT0=    0
 Petite list used in FoFCou.
 Leave Link  703 at Tue Jan 26 00:25:14 2021, MaxMem=  6291456000 cpu:              11.7 elap:               0.5
 (Enter /home/orgChemistry/bin/gaussian16-C.01/g16/l716.exe)
 Dipole        = 4.44089210D-16-1.66533454D-15-5.96764872D-01
 ***** Axes restored to original set *****
 -------------------------------------------------------------------
 Center     Atomic                   Forces (Hartrees/Bohr)
 Number     Number              X              Y              Z
 -------------------------------------------------------------------
      1        7           0.000017380    0.000028441    0.000040093
      2        1           0.000071830   -0.000025359   -0.000035748
      3        1          -0.000044604    0.000056614   -0.000043427
      4        1          -0.000044605   -0.000059696    0.000039082
 -------------------------------------------------------------------
 Cartesian Forces:  Max     0.000071830 RMS     0.000044684
 Leave Link  716 at Tue Jan 26 00:25:14 2021, MaxMem=  6291456000 cpu:               0.9 elap:               0.1
 (Enter /home/orgChemistry/bin/gaussian16-C.01/g16/l103.exe)

 GradGradGradGradGradGradGradGradGradGradGradGradGradGradGradGradGradGrad
 Berny optimization.
 Using GEDIIS/GDIIS optimizer.
 FormGI is forming the generalized inverse of G from B-inverse, IUseBI=4.
 Internal  Forces:  Max     0.000070058 RMS     0.000058904
 Search for a local minimum.
 Step number   3 out of a maximum of   20
 All quantities printed in internal units (Hartrees-Bohrs-Radians)
 RMS Force = .58904D-04 SwitMx=.10000D-02 MixMth= 2
 Mixed Optimization -- En-DIIS/RFO-DIIS
 Swapping is turned off.
 Update second derivatives using D2CorX and points    1    2    3
 DE= -1.85D-05 DEPred=-1.80D-05 R= 1.03D+00
 TightC=F SS=  1.41D+00  RLast= 2.67D-02 DXNew= 5.0454D-01 7.9972D-02
 Trust test= 1.03D+00 RLast= 2.67D-02 DXMaxT set to 3.00D-01
 The second derivative matrix:
                          R1        R2        R3        A1        A2
           R1           0.44775
           R2           0.00277   0.44775
           R3           0.00277   0.00277   0.44775
           A1           0.05213   0.05213   0.05213   0.13250
           A2           0.03074   0.03074   0.03074  -0.03009   0.13548
           A3           0.03074   0.03074   0.03074  -0.03009  -0.02452
           D1          -0.02495  -0.02495  -0.02495  -0.00628   0.00509
                          A3        D1
           A3           0.13548
           D1           0.00509   0.02335
 ITU=  1  1  0
     Eigenvalues ---    0.04120   0.15402   0.16000   0.44498   0.44498
     Eigenvalues ---    0.45732
 En-DIIS/RFO-DIIS/Sim-DIIS IScMMF=       -3 using points:     3    2
 RFO step:  Lambda=-1.78900812D-07.
 NNeg= 0 NGDIIS= 2 SimSw=  2.50D-03 Rises=F DC= -1.85D-05 SmlDif=  1.00D-05
 NRisDI= 0 DoIntr=F SqrtH=F CThrHd= 10.0 CDAdj=  3.0
 RMS Error=  0.6865533213D-03 NUsed= 2 OKEnD=T EnDIS=F
 InvSVX:  RCond= 1.78D-04 Info=           0 Equed=N FErr=  1.02D-15 BErr=  4.27D-17
 DidBck=F Rises=F RFO-DIIS coefs:    1.06595   -0.06595
 Iteration  1 RMS(Cart)=  0.00047770 RMS(Int)=  0.00000525
 Iteration  2 RMS(Cart)=  0.00000024 RMS(Int)=  0.00000525
 ITry= 1 IFail=0 DXMaxC= 6.23D-04 DCOld= 1.00D+10 DXMaxT= 3.00D-01 DXLimC= 3.00D+00 Rises=F
 ClnCor:  largest displacement from symmetrization is 1.22D-05 for atom     4.
 Variable       Old X    -DE/DX   Delta X   Delta X   Delta X     New X
                                 (Linear)    (Quad)   (Total)
    R1        1.91502   0.00007  -0.00019   0.00025   0.00006   1.91508
    R2        1.91502   0.00007  -0.00019   0.00025   0.00006   1.91508
    R3        1.91502   0.00007  -0.00019   0.00025   0.00006   1.91508
    A1        1.86989   0.00001   0.00064   0.00002   0.00066   1.87055
    A2        1.86989   0.00005   0.00064   0.00004   0.00066   1.87055
    A3        1.86989   0.00005   0.00064   0.00004   0.00066   1.87055
    D1        2.00175   0.00006   0.00133   0.00006   0.00140   2.00315
         Item               Value     Threshold  Converged?
 Maximum Force            0.000070     0.000450     YES
 RMS     Force            0.000059     0.000300     YES
 Maximum Displacement     0.000618     0.001800     YES
 RMS     Displacement     0.000476     0.001200     YES
 Predicted change in Energy=-8.946111D-08
 Optimization completed.
    -- Stationary point found.
                           ----------------------------
                           !   Optimized Parameters   !
                           ! (Angstroms and Degrees)  !
 --------------------------                            --------------------------
 ! Name  Definition              Value          Derivative Info.                !
 --------------------------------------------------------------------------------
 ! R1    R(1,2)                  1.0134         -DE/DX =    0.0001              !
 ! R2    R(1,3)                  1.0134         -DE/DX =    0.0001              !
 ! R3    R(1,4)                  1.0134         -DE/DX =    0.0001              !
 ! A1    A(2,1,3)              107.1366         -DE/DX =    0.0                 !
 ! A2    A(2,1,4)              107.1366         -DE/DX =    0.0001              !
 ! A3    A(3,1,4)              107.1366         -DE/DX =    0.0001              !
 ! D1    D(2,1,4,3)            114.6918         -DE/DX =    0.0001              !
 --------------------------------------------------------------------------------
 Lowest energy point so far.  Saving SCF results.
 Largest change from initial coordinates is atom    4       0.014 Angstoms.
 GradGradGradGradGradGradGradGradGradGradGradGradGradGradGradGradGradGrad

 Leave Link  103 at Tue Jan 26 00:25:14 2021, MaxMem=  6291456000 cpu:               1.0 elap:               0.1
 (Enter /home/orgChemistry/bin/gaussian16-C.01/g16/l202.exe)
                          Input orientation:                          
 ---------------------------------------------------------------------
 Center     Atomic      Atomic             Coordinates (Angstroms)
 Number     Number       Type             X           Y           Z
 ---------------------------------------------------------------------
      1          7           0       -3.444407    2.736374   -0.625427
      2          1           0       -2.431797    2.759334   -0.593058
      3          1           0       -3.763234    3.696702   -0.680863
      4          1           0       -3.763237    2.366695    0.262626
 ---------------------------------------------------------------------
                    Distance matrix (angstroms):
                    1          2          3          4
     1  N    0.000000
     2  H    1.013387   0.000000
     3  H    1.013387   1.630672   0.000000
     4  H    1.013387   1.630672   1.630672   0.000000
 Stoichiometry    H3N
 Framework group  C3V[C3(N),3SGV(H)]
 Deg. of freedom     2
 Full point group                 C3V     NOp   6
 RotChk:  IX=0 Diff= 2.78D-15
 Largest Abelian subgroup         CS      NOp   2
 Largest concise Abelian subgroup CS      NOp   2
                         Standard orientation:                         
 ---------------------------------------------------------------------
 Center     Atomic      Atomic             Coordinates (Angstroms)
 Number     Number       Type             X           Y           Z
 ---------------------------------------------------------------------
      1          7           0       -0.000000    0.000000    0.112486
      2          1           0       -0.000000    0.941469   -0.262467
      3          1           0        0.815336   -0.470735   -0.262467
      4          1           0       -0.815336   -0.470735   -0.262467
 ---------------------------------------------------------------------
 Rotational constants (GHZ):         299.1227096         299.1227096         188.5813315
 Leave Link  202 at Tue Jan 26 00:25:14 2021, MaxMem=  6291456000 cpu:               1.1 elap:               0.1
 (Enter /home/orgChemistry/bin/gaussian16-C.01/g16/l601.exe)
 Copying SCF densities to generalized density rwf, IOpCl= 0 IROHF=0.

 **********************************************************************

            Population analysis using the SCF Density.

 **********************************************************************

 Orbital symmetries:
       Occupied  (A1) (A1) (E) (E) (A1)
       Virtual   (A1) (E) (E) (A1) (E) (E) (A1) (E) (E) (A1) (E)
                 (E) (E) (E) (A1) (A2) (A1) (E) (E) (A1) (E) (E)
                 (A1) (E) (E) (E) (E) (A1) (E) (E) (A1) (E) (E)
                 (A2) (A1) (E) (E) (E) (E) (A1) (E) (E) (A1) (A1)
                 (E) (E) (A1) (E) (E) (A2) (E) (E) (E) (E) (E)
                 (E) (A1) (A2) (E) (E) (A1) (A1) (E) (E) (A1) (E)
                 (E) (A1) (E) (E) (A2) (E) (E) (E) (E) (A2) (A1)
                 (E) (E) (E) (E) (A1) (A1) (E) (E) (E) (E) (A1)
 The electronic state is 1-A1.
 Alpha  occ. eigenvalues --  -14.29565  -0.85732  -0.46770  -0.46770  -0.27473
 Alpha virt. eigenvalues --   -0.01552   0.03335   0.03335   0.10049   0.12820
 Alpha virt. eigenvalues --    0.12820   0.14069   0.19107   0.19107   0.21108
 Alpha virt. eigenvalues --    0.29013   0.29013   0.38593   0.38593   0.42829
 Alpha virt. eigenvalues --    0.52350   0.55039   0.55220   0.55220   0.67346
 Alpha virt. eigenvalues --    0.71257   0.71257   0.74806   0.79047   0.79047
 Alpha virt. eigenvalues --    0.90347   0.90347   0.96013   1.01401   1.01401
 Alpha virt. eigenvalues --    1.43244   1.81153   1.81153   1.81838   1.85472
 Alpha virt. eigenvalues --    1.95061   1.95061   2.12312   2.12312   2.26497
 Alpha virt. eigenvalues --    2.56745   2.56745   2.57031   2.87005   2.89373
 Alpha virt. eigenvalues --    2.89373   3.00530   3.01876   3.01876   3.10946
 Alpha virt. eigenvalues --    3.22696   3.22696   3.29470   3.29470   3.68909
 Alpha virt. eigenvalues --    3.68909   3.79194   3.81171   4.07422   4.07422
 Alpha virt. eigenvalues --    4.41605   4.54007   4.59368   4.59368   5.01864
 Alpha virt. eigenvalues --    5.17478   5.17478   5.23709   5.32976   5.32976
 Alpha virt. eigenvalues --    5.50195   6.07106   6.07106   8.29569   8.29569
 Alpha virt. eigenvalues --    8.37071   8.38210   8.47757   8.47757   9.21611
 Alpha virt. eigenvalues --    9.21611   9.26158  10.82834  10.90729  10.90729
 Alpha virt. eigenvalues --   11.72932  11.72932  37.20099
          Condensed to atoms (all electrons):
               1          2          3          4
     1  N    7.135806   0.276828   0.276828   0.276828
     2  H    0.276828   0.484431  -0.041678  -0.041678
     3  H    0.276828  -0.041678   0.484431  -0.041678
     4  H    0.276828  -0.041678  -0.041678   0.484431
 Mulliken charges:
               1
     1  N   -0.966290
     2  H    0.322097
     3  H    0.322097
     4  H    0.322097
 Sum of Mulliken charges =  -0.00000
 Mulliken charges with hydrogens summed into heavy atoms:
               1
     1  N   -0.000000
 Electronic spatial extent (au):  <R**2>=             27.1277
 Charge=              0.0000 electrons
 Dipole moment (field-independent basis, Debye):
    X=             -0.0000    Y=             -0.0000    Z=             -1.5168  Tot=              1.5168
 Quadrupole moment (field-independent basis, Debye-Ang):
   XX=             -6.3737   YY=             -6.3737   ZZ=             -9.5501
   XY=             -0.0000   XZ=              0.0000   YZ=             -0.0000
 Traceless Quadrupole moment (field-independent basis, Debye-Ang):
   XX=              1.0588   YY=              1.0588   ZZ=             -2.1176
   XY=             -0.0000   XZ=              0.0000   YZ=             -0.0000
 Octapole moment (field-independent basis, Debye-Ang**2):
  XXX=              0.0000  YYY=              0.9462  ZZZ=             -1.2944  XYY=              0.0000
  XXY=             -0.9462  XXZ=             -0.8529  XZZ=              0.0000  YZZ=             -0.0000
  YYZ=             -0.8529  XYZ=              0.0000
 Hexadecapole moment (field-independent basis, Debye-Ang**3):
 XXXX=            -10.7067 YYYY=            -10.7067 ZZZZ=            -13.8596 XXXY=             -0.0000
 XXXZ=              0.0000 YYYX=             -0.0000 YYYZ=             -0.3332 ZZZX=              0.0000
 ZZZY=             -0.0000 XXYY=             -3.5689 XXZZ=             -4.2353 YYZZ=             -4.2353
 XXYZ=              0.3332 YYXZ=              0.0000 ZZXY=              0.0000
 N-N= 1.193946328732D+01 E-N=-1.559809875355D+02  KE= 5.632513997861D+01
 Symmetry A'   KE= 5.363383516069D+01
 Symmetry A"   KE= 2.691304817926D+00
 No NMR shielding tensors so no spin-rotation constants.
 Leave Link  601 at Tue Jan 26 00:25:14 2021, MaxMem=  6291456000 cpu:               4.2 elap:               0.2
 (Enter /home/orgChemistry/bin/gaussian16-C.01/g16/l9999.exe)
 Unable to Open any file for archive entry.
 1\1\GINC-NODE2-024\FOpt\RB3LYP\6-311++G(3df,3pd)\H3N1\RUTHM\26-Jan-202
 1\0\\#p b3lyp/6-311++G(3df,3pd) opt freq=noraman\\title\\0,1\N,-3.4444
 07099,2.7363742641,-0.6254270539\H,-2.4317972941,2.7593341132,-0.59305
 81309\H,-3.763233794,3.6967022647,-0.6808634029\H,-3.763236727,2.36669
 49051,0.2626260744\\Version=ES64L-G16RevC.01\State=1-A1\HF=-56.5875477
 \RMSD=2.331e-09\RMSF=4.468e-05\Dipole=0.198922,0.3255344,0.4588962\Qua
 drupole=0.5247943,0.084461,-0.6092553,-0.4294136,-0.6053316,-0.9906205
 \PG=C03V [C3(N1),3SGV(H1)]\\@
 The archive entry for this job was punched.


    UPON JULIA'S CLOTHES

 WHENAS IN SILKS MY JULIA GOES,
 THEN, THEN, METHINKS, HOW SWEETLY FLOWS
 THAT LIQUEFACTION OF HER CLOTHES.

 NEXT, WHEN I CAST MINE EYES, AND SEE
 THAT BRAVE VIBRATION, EACH WAY FREE,
 O, HOW THAT GLITTERING TAKETH ME!
     -- ROBERT HERRICK, 1648
 Leave Link 9999 at Tue Jan 26 00:25:16 2021, MaxMem=  6291456000 cpu:               2.7 elap:               0.2
 Job cpu time:       0 days  0 hours  3 minutes 11.9 seconds.
 Elapsed time:       0 days  0 hours  0 minutes 11.9 seconds.
 File lengths (MBytes):  RWF=     15 Int=      0 D2E=      0 Chk=      2 Scr=      1
 Normal termination of Gaussian 16 at Tue Jan 26 00:25:16 2021.
 (Enter /home/orgChemistry/bin/gaussian16-C.01/g16/l1.exe)
 Link1:  Proceeding to internal job step number  2.
 ----------------------------------------------------------------------
 #P Geom=AllCheck Guess=TCheck SCRF=Check GenChk RB3LYP/6-311++G(3df,3p
 d) Freq
 ----------------------------------------------------------------------
 1/10=4,29=7,30=1,38=1,40=1/1,3;
 2/12=2,40=1/2;
 3/5=4,6=6,7=1616,11=2,14=-4,25=1,30=1,70=2,71=2,74=-5,116=1,140=1/1,2,3;
 4/5=101/1;
 5/5=2,38=6,98=1/2;
 8/6=4,10=90,11=11/1;
 11/6=1,8=1,9=11,15=111,16=1/1,2,10;
 10/6=1/2;
 6/7=2,8=2,9=2,10=2,28=1/1;
 7/8=1,10=1,25=1/1,2,3,16;
 1/10=4,30=1/3;
 99//99;
 Leave Link    1 at Tue Jan 26 00:25:16 2021, MaxMem=  6291456000 cpu:               1.4 elap:               0.1
 (Enter /home/orgChemistry/bin/gaussian16-C.01/g16/l101.exe)
 Structure from the checkpoint file:  "file_name.chk"
 -----
 title
 -----
 Charge =  0 Multiplicity = 1
 Redundant internal coordinates found in file.  (old form).
 N,0,-3.444407099,2.7363742641,-0.6254270539
 H,0,-2.4317972941,2.7593341132,-0.5930581309
 H,0,-3.763233794,3.6967022647,-0.6808634029
 H,0,-3.763236727,2.3666949051,0.2626260744
 Recover connectivity data from disk.
 ITRead=  0  0  0  0
 MicOpt= -1 -1 -1 -1
 NAtoms=      4 NQM=        4 NQMF=       0 NMMI=      0 NMMIF=      0
                NMic=       0 NMicF=      0.
                    Isotopes and Nuclear Properties:
 (Nuclear quadrupole moments (NQMom) in fm**2, nuclear magnetic moments (NMagM)
  in nuclear magnetons)

  Atom         1           2           3           4
 IAtWgt=          14           1           1           1
 AtmWgt=  14.0030740   1.0078250   1.0078250   1.0078250
 NucSpn=           2           1           1           1
 AtZEff=   4.5500000   1.0000000   1.0000000   1.0000000
 NQMom=    2.0440000   0.0000000   0.0000000   0.0000000
 NMagM=    0.4037610   2.7928460   2.7928460   2.7928460
 AtZNuc=   7.0000000   1.0000000   1.0000000   1.0000000
 Leave Link  101 at Tue Jan 26 00:25:17 2021, MaxMem=  6291456000 cpu:               6.8 elap:               0.4
 (Enter /home/orgChemistry/bin/gaussian16-C.01/g16/l103.exe)

 GradGradGradGradGradGradGradGradGradGradGradGradGradGradGradGradGradGrad
 Berny optimization.
 Initialization pass.
                           ----------------------------
                           !    Initial Parameters    !
                           ! (Angstroms and Degrees)  !
 --------------------------                            --------------------------
 ! Name  Definition              Value          Derivative Info.                !
 --------------------------------------------------------------------------------
 ! R1    R(1,2)                  1.0134         calculate D2E/DX2 analytically  !
 ! R2    R(1,3)                  1.0134         calculate D2E/DX2 analytically  !
 ! R3    R(1,4)                  1.0134         calculate D2E/DX2 analytically  !
 ! A1    A(2,1,3)              107.1366         calculate D2E/DX2 analytically  !
 ! A2    A(2,1,4)              107.1366         calculate D2E/DX2 analytically  !
 ! A3    A(3,1,4)              107.1366         calculate D2E/DX2 analytically  !
 ! D1    D(2,1,4,3)            114.6918         calculate D2E/DX2 analytically  !
 --------------------------------------------------------------------------------
 Trust Radius=3.00D-01 FncErr=1.00D-07 GrdErr=1.00D-07 EigMax=2.50D+02 EigMin=1.00D-04
 Number of steps in this run=      2 maximum allowed number of steps=      2.
 GradGradGradGradGradGradGradGradGradGradGradGradGradGradGradGradGradGrad

 Leave Link  103 at Tue Jan 26 00:25:17 2021, MaxMem=  6291456000 cpu:               0.3 elap:               0.1
 (Enter /home/orgChemistry/bin/gaussian16-C.01/g16/l202.exe)
                          Input orientation:                          
 ---------------------------------------------------------------------
 Center     Atomic      Atomic             Coordinates (Angstroms)
 Number     Number       Type             X           Y           Z
 ---------------------------------------------------------------------
      1          7           0       -3.444407    2.736374   -0.625427
      2          1           0       -2.431797    2.759334   -0.593058
      3          1           0       -3.763234    3.696702   -0.680863
      4          1           0       -3.763237    2.366695    0.262626
 ---------------------------------------------------------------------
                    Distance matrix (angstroms):
                    1          2          3          4
     1  N    0.000000
     2  H    1.013387   0.000000
     3  H    1.013387   1.630672   0.000000
     4  H    1.013387   1.630672   1.630672   0.000000
 Stoichiometry    H3N
 Framework group  C3V[C3(N),3SGV(H)]
 Deg. of freedom     2
 Full point group                 C3V     NOp   6
 RotChk:  IX=0 Diff= 1.26D-15
 Largest Abelian subgroup         CS      NOp   2
 Largest concise Abelian subgroup CS      NOp   2
                         Standard orientation:                         
 ---------------------------------------------------------------------
 Center     Atomic      Atomic             Coordinates (Angstroms)
 Number     Number       Type             X           Y           Z
 ---------------------------------------------------------------------
      1          7           0       -0.000000   -0.000000    0.112486
      2          1           0        0.000000    0.941469   -0.262467
      3          1           0        0.815336   -0.470735   -0.262467
      4          1           0       -0.815336   -0.470735   -0.262467
 ---------------------------------------------------------------------
 Rotational constants (GHZ):         299.1227096         299.1227096         188.5813315
 Leave Link  202 at Tue Jan 26 00:25:17 2021, MaxMem=  6291456000 cpu:               1.6 elap:               0.1
 (Enter /home/orgChemistry/bin/gaussian16-C.01/g16/l301.exe)
 Standard basis: 6-311++G(3df,3pd) (5D, 7F)
 Ernie: Thresh=  0.10000D-02 Tol=  0.10000D-05 Strict=F.
 There are    64 symmetry adapted cartesian basis functions of A'  symmetry.
 There are    38 symmetry adapted cartesian basis functions of A"  symmetry.
 There are    57 symmetry adapted basis functions of A'  symmetry.
 There are    36 symmetry adapted basis functions of A"  symmetry.
    93 basis functions,   121 primitive gaussians,   102 cartesian basis functions
     5 alpha electrons        5 beta electrons
       nuclear repulsion energy        11.9394632873 Hartrees.
 IExCor=  402 DFT=T Ex+Corr=B3LYP ExCW=0 ScaHFX=  0.200000
 ScaDFX=  0.800000  0.720000  1.000000  0.810000 ScalE2=  1.000000  1.000000
 IRadAn=      5 IRanWt=     -1 IRanGd=            0 ICorTp=0 IEmpDi=  4
 NAtoms=    4 NActive=    4 NUniq=    2 SFac= 4.00D+00 NAtFMM=   60 NAOKFM=F Big=F
 Integral buffers will be    131072 words long.
 Raffenetti 2 integral format.
 Two-electron integral symmetry is turned on.
 Leave Link  301 at Tue Jan 26 00:25:17 2021, MaxMem=  6291456000 cpu:               1.3 elap:               0.1
 (Enter /home/orgChemistry/bin/gaussian16-C.01/g16/l302.exe)
 NPDir=0 NMtPBC=     1 NCelOv=     1 NCel=       1 NClECP=     1 NCelD=      1
         NCelK=      1 NCelE2=     1 NClLst=     1 CellRange=     0.0.
 One-electron integrals computed using PRISM.
 One-electron integral symmetry used in STVInt
 NBasis=    93 RedAO= T EigKep=  4.16D-04  NBF=    57    36
 NBsUse=    93 1.00D-06 EigRej= -1.00D+00 NBFU=    57    36
 Precomputing XC quadrature grid using
 IXCGrd= 4 IRadAn=           5 IRanWt=          -1 IRanGd=           0 AccXCQ= 0.00D+00.
 Generated NRdTot=       0 NPtTot=           0 NUsed=           0 NTot=          32
 NSgBfM=   102   102   102   102   102 MxSgAt=     4 MxSgA2=     4.
 Leave Link  302 at Tue Jan 26 00:25:17 2021, MaxMem=  6291456000 cpu:               4.7 elap:               0.2
 (Enter /home/orgChemistry/bin/gaussian16-C.01/g16/l303.exe)
 DipDrv:  MaxL=1.
 Leave Link  303 at Tue Jan 26 00:25:17 2021, MaxMem=  6291456000 cpu:               0.5 elap:               0.1
 (Enter /home/orgChemistry/bin/gaussian16-C.01/g16/l401.exe)
 Initial guess from the checkpoint file:  "file_name.chk"
 B after Tr=    -0.000000   -0.000000    0.000000
         Rot=    1.000000    0.000000    0.000000    0.000000 Ang=   0.00 deg.
 Guess basis will be translated and rotated to current coordinates.
 JPrj=2 DoOrth=T DoCkMO=T.
 Initial guess orbital symmetries:
       Occupied  (A1) (A1) (E) (E) (A1)
[...]
                     A1                      E                      E
 Frequencies --   1028.4024              1661.0803              1661.0803
 Red. masses --      1.1819                 1.0669                 1.0669
 Frc consts  --      0.7365                 1.7345                 1.7345
 IR Inten    --    148.5227                16.0735                16.0738
  Atom  AN      X      Y      Z        X      Y      Z        X      Y      Z
     1   7    -0.00  -0.00  -0.12    -0.07   0.00  -0.00    -0.00  -0.07   0.00
     2   1     0.00   0.20   0.54     0.76   0.00   0.00     0.00  -0.14  -0.25
     3   1     0.18  -0.10   0.54     0.09   0.39  -0.22     0.39   0.54   0.12
     4   1    -0.18  -0.10   0.54     0.09  -0.39   0.22    -0.39   0.54   0.12
                      4                      5                      6
                     A1                      E                      E
 Frequencies --   3471.8016              3590.5135              3590.5136
 Red. masses --      1.0258                 1.0899                 1.0899
 Frc consts  --      7.2845                 8.2784                 8.2784
 IR Inten    --      4.0667                 4.2594                 4.2595
  Atom  AN      X      Y      Z        X      Y      Z        X      Y      Z
     1   7     0.00   0.00   0.04     0.00  -0.08   0.00    -0.08  -0.00   0.00
     2   1     0.00   0.55  -0.17     0.00   0.76  -0.29    -0.02   0.00  -0.00
     3   1     0.48  -0.28  -0.17    -0.34   0.17   0.15     0.56  -0.34  -0.25
     4   1    -0.48  -0.28  -0.17     0.34   0.17   0.15     0.56   0.34   0.25

 -------------------
 - Thermochemistry -
 -------------------
 Temperature   298.150 Kelvin.  Pressure   1.00000 Atm.
 Atom     1 has atomic number  7 and mass  14.00307
 Atom     2 has atomic number  1 and mass   1.00783
 Atom     3 has atomic number  1 and mass   1.00783
 Atom     4 has atomic number  1 and mass   1.00783
 Molecular mass:    17.02655 amu.
 Principal axes and moments of inertia in atomic units:
                           1         2         3
     Eigenvalues --     6.03345   6.03345   9.57009
           X            0.99855   0.05383   0.00000
           Y           -0.05383   0.99855  -0.00000
           Z           -0.00000   0.00000   1.00000
 This molecule is an oblate symmetric top.
 Rotational symmetry number  3.
 Rotational temperatures (Kelvin)     14.35563    14.35563     9.05048
 Rotational constants (GHZ):         299.12271   299.12271   188.58133
 Zero-point vibrational energy      89740.2 (Joules/Mol)
                                   21.44843 (Kcal/Mol)
 Vibrational temperatures:   1479.64  2389.92  2389.92  4995.15  5165.95
          (Kelvin)           5165.95
 
 Zero-point correction=                           0.034180 (Hartree/Particle)
 Thermal correction to Energy=                    0.037051
 Thermal correction to Enthalpy=                  0.037995
 Thermal correction to Gibbs Free Energy=         0.016152
 Sum of electronic and zero-point Energies=            -56.553367
 Sum of electronic and thermal Energies=               -56.550497
 Sum of electronic and thermal Enthalpies=             -56.549553
 Sum of electronic and thermal Free Energies=          -56.571395
 
                     E (Thermal)             CV                S
                      KCal/Mol        Cal/Mol-Kelvin    Cal/Mol-Kelvin
 Total                   23.250              6.393             45.972
 Electronic               0.000              0.000              0.000
 Translational            0.889              2.981             34.441
 Rotational               0.889              2.981             11.436
 Vibrational             21.472              0.432              0.095
                       Q            Log10(Q)             Ln(Q)
 Total Bot       0.371896D-07         -7.429579        -17.107238
 Total V=0       0.195987D+09          8.292227         19.093558
 Vib (Bot)       0.191218D-15        -15.718471        -36.193117
 Vib (V=0)       0.100771D+01          0.003335          0.007679
 Electronic      0.100000D+01          0.000000          0.000000
 Translational   0.276149D+07          6.441144         14.831282
 Rotational      0.704284D+02          1.847748          4.254597
 
                                                                title
                                                             IR Spectrum
 
      3   3                                                               1                     1                                    
      5   4                                                               6                     0                                    
      9   7                                                               6                     2                                    
      1   2                                                               1                     8                                    
 
      X   X                                                               X                     X                                    
                                                                          X                     X                                    
                                                                          X                     X                                    
                                                                          X                     X                                    
                                                                                                X                                    
                                                                                                X                                    
                                                                                                X                                    
                                                                                                X                                    
                                                                                                X                                    
                                                                                                X                                    
                                                                                                X                                    
                                                                                                X                                    
                                                                                                X                                    
                                                                                                X                                    
                                                                                                X                                    
                                                                                                X                                    
                                                                                                X                                    
                                                                                                X                                    
                                                                                                X                                    
                                                                                                X                                    
 
 ***** Axes restored to original set *****
 -------------------------------------------------------------------
 Center     Atomic                   Forces (Hartrees/Bohr)
 Number     Number              X              Y              Z
 -------------------------------------------------------------------
      1        7           0.000017379    0.000028441    0.000040092
      2        1           0.000071830   -0.000025359   -0.000035748
      3        1          -0.000044604    0.000056614   -0.000043426
      4        1          -0.000044605   -0.000059695    0.000039082
 -------------------------------------------------------------------
 Cartesian Forces:  Max     0.000071830 RMS     0.000044684
 Force constants in Cartesian coordinates: 
                1             2             3             4             5 
      1  0.593602D+00
      2 -0.786239D-01  0.512979D+00
      3 -0.110834D+00 -0.181379D+00  0.385962D+00
      4 -0.425299D+00  0.497967D-02  0.701855D-02  0.451086D+00
      5 -0.258253D-01 -0.438867D-01  0.222173D-01  0.856160D-03  0.452241D-01
      6 -0.364063D-01  0.222173D-01 -0.283284D-01  0.120812D-02 -0.181986D-01
      7 -0.841511D-01  0.994277D-01  0.749572D-02 -0.128932D-01  0.417059D-01
      8  0.127366D+00 -0.387323D+00  0.478232D-01 -0.515192D-02 -0.158150D-03
      9  0.203155D-01  0.435152D-02 -0.260399D-01 -0.252857D-02 -0.497214D-03
     10 -0.841517D-01 -0.257835D-01  0.963195D-01 -0.128933D-01 -0.167367D-01
     11 -0.229166D-01 -0.817688D-01  0.111338D+00 -0.683922D-03 -0.117923D-02
     12  0.126925D+00  0.154810D+00 -0.331594D+00 -0.569811D-02 -0.352142D-02
                6             7             8             9            10 
      6  0.324800D-01
      7 -0.313013D-02  0.927596D-01
      8 -0.316386D-02 -0.126905D+00  0.402725D+00
      9 -0.258637D-02 -0.435453D-02 -0.393447D-01  0.333047D-01
     10  0.383283D-01  0.428472D-02  0.469146D-02 -0.134324D-01  0.927603D-01
     11 -0.854868D-03 -0.142282D-01 -0.152441D-01  0.354904D-01  0.378287D-01
     12 -0.156516D-02 -0.110967D-04 -0.531454D-02 -0.467833D-02 -0.121215D+00
               11            12 
     11  0.981922D-01
     12 -0.145974D+00  0.337837D+00
 FormGI is forming the generalized inverse of G from B-inverse, IUseBI=4.
 Force constants in internal coordinates: 
                1             2             3             4             5 
      1  0.450540D+00
      2 -0.104699D-02  0.450540D+00
      3 -0.104699D-02 -0.104704D-02  0.450540D+00
      4  0.786263D-02  0.786262D-02 -0.812245D-02  0.530685D-01
      5  0.191810D-01 -0.292518D-02  0.217379D-01 -0.415630D-01  0.128750D+00
      6 -0.292520D-02  0.191810D-01  0.217380D-01 -0.415630D-01 -0.216677D-01
      7  0.168771D-01  0.168771D-01  0.115626D-01  0.211277D-01  0.365022D-02
                6             7 
      6  0.128750D+00
      7  0.365020D-02  0.278466D-01
 Leave Link  716 at Tue Jan 26 00:25:25 2021, MaxMem=  6291456000 cpu:               1.3 elap:               0.1
 (Enter /home/orgChemistry/bin/gaussian16-C.01/g16/l103.exe)

 GradGradGradGradGradGradGradGradGradGradGradGradGradGradGradGradGradGrad
 Berny optimization.
 Red2BG is reusing G-inverse.
 Internal  Forces:  Max     0.000070058 RMS     0.000058904
 Search for a local minimum.
 Step number   1 out of a maximum of    2
 All quantities printed in internal units (Hartrees-Bohrs-Radians)
 Second derivative matrix not updated -- analytic derivatives used.
 The second derivative matrix:
                          R1        R2        R3        A1        A2
           R1           0.45054
           R2          -0.00105   0.45054
           R3          -0.00105  -0.00105   0.45054
           A1           0.00786   0.00786  -0.00812   0.05307
           A2           0.01918  -0.00293   0.02174  -0.04156   0.12875
           A3          -0.00293   0.01918   0.02174  -0.04156  -0.02167
           D1           0.01688   0.01688   0.01156   0.02113   0.00365
                          A3        D1
           A3           0.12875
           D1           0.00365   0.02785
 ITU=  0
     Eigenvalues ---    0.03983   0.14232   0.14880   0.45181   0.45320
     Eigenvalues ---    0.45407
 Angle between quadratic step and forces=  51.08 degrees.
 Linear search not attempted -- first point.
 Iteration  1 RMS(Cart)=  0.00049176 RMS(Int)=  0.00000047
 Iteration  2 RMS(Cart)=  0.00000025 RMS(Int)=  0.00000038
 ITry= 1 IFail=0 DXMaxC= 6.37D-04 DCOld= 1.00D+10 DXMaxT= 3.00D-01 DXLimC= 3.00D+00 Rises=F
 ClnCor:  largest displacement from symmetrization is 1.76D-08 for atom     4.
 Variable       Old X    -DE/DX   Delta X   Delta X   Delta X     New X
                                 (Linear)    (Quad)   (Total)
    R1        1.91502   0.00007   0.00000   0.00006   0.00006   1.91509
    R2        1.91502   0.00007   0.00000   0.00006   0.00006   1.91509
    R3        1.91502   0.00007   0.00000   0.00007   0.00006   1.91509
    A1        1.86989   0.00001   0.00000   0.00068   0.00068   1.87057
    A2        1.86989   0.00005   0.00000   0.00068   0.00068   1.87057
    A3        1.86989   0.00005   0.00000   0.00068   0.00068   1.87057
    D1        2.00175   0.00006   0.00000   0.00145   0.00145   2.00320
         Item               Value     Threshold  Converged?
 Maximum Force            0.000070     0.000450     YES
 RMS     Force            0.000059     0.000300     YES
 Maximum Displacement     0.000637     0.001800     YES
 RMS     Displacement     0.000492     0.001200     YES
 Predicted change in Energy=-9.171504D-08
 Optimization completed.
    -- Stationary point found.
                           ----------------------------
                           !   Optimized Parameters   !
                           ! (Angstroms and Degrees)  !
 --------------------------                            --------------------------
 ! Name  Definition              Value          Derivative Info.                !
 --------------------------------------------------------------------------------
 ! R1    R(1,2)                  1.0134         -DE/DX =    0.0001              !
 ! R2    R(1,3)                  1.0134         -DE/DX =    0.0001              !
 ! R3    R(1,4)                  1.0134         -DE/DX =    0.0001              !
 ! A1    A(2,1,3)              107.1366         -DE/DX =    0.0                 !
 ! A2    A(2,1,4)              107.1366         -DE/DX =    0.0001              !
 ! A3    A(3,1,4)              107.1366         -DE/DX =    0.0001              !
 ! D1    D(2,1,4,3)            114.6918         -DE/DX =    0.0001              !
 --------------------------------------------------------------------------------
 GradGradGradGradGradGradGradGradGradGradGradGradGradGradGradGradGradGrad

 Leave Link  103 at Tue Jan 26 00:25:25 2021, MaxMem=  6291456000 cpu:               0.8 elap:               0.1
 (Enter /home/orgChemistry/bin/gaussian16-C.01/g16/l9999.exe)

 ----------------------------------------------------------------------

 Electric dipole moment (input orientation):
 (Debye = 10**-18 statcoulomb cm , SI units = C m)
                  (au)            (Debye)         (10**-30 SI)
   Tot        0.596765D+00      0.151682D+01      0.505958D+01
   x          0.198922D+00      0.505609D+00      0.168653D+01
   y          0.325534D+00      0.827426D+00      0.276000D+01
   z          0.458896D+00      0.116640D+01      0.389068D+01

 Dipole polarizability, Alpha (input orientation).
 (esu units = cm**3 , SI units = C**2 m**2 J**-1)
 Alpha(0;0):
               (au)            (10**-24 esu)      (10**-40 SI)
   iso        0.139213D+02      0.206293D+01      0.229532D+01
   aniso      0.176296D+01      0.261244D+00      0.290673D+00
   xx         0.135295D+02      0.200487D+01      0.223072D+01
   yx         0.320542D+00      0.474995D-01      0.528503D-01
   yy         0.138583D+02      0.205359D+01      0.228492D+01
   zx         0.451859D+00      0.669586D-01      0.745015D-01
   zy         0.739530D+00      0.109587D+00      0.121932D+00
   zz         0.143762D+02      0.213033D+01      0.237031D+01

 ----------------------------------------------------------------------

 Dipole orientation:
     7         -6.23771347          5.61493347         -0.25773305
     1         -4.46920059          5.42096065          0.45082486
     1         -6.95398453          7.24349696          0.45082486
     1         -7.28995530          4.18034279          0.45082486

 Electric dipole moment (dipole orientation):
 (Debye = 10**-18 statcoulomb cm , SI units = C m)
                  (au)            (Debye)         (10**-30 SI)
   Tot        0.596765D+00      0.151682D+01      0.505958D+01
   x          0.000000D+00      0.000000D+00      0.000000D+00
   y          0.000000D+00      0.000000D+00      0.000000D+00
   z          0.596765D+00      0.151682D+01      0.505958D+01

 Dipole polarizability, Alpha (dipole orientation).
 (esu units = cm**3 , SI units = C**2 m**2 J**-1)
 Alpha(0;0):
               (au)            (10**-24 esu)      (10**-40 SI)
   iso        0.139213D+02      0.206293D+01      0.229532D+01
   aniso      0.176296D+01      0.261244D+00      0.290673D+00
   xx         0.133337D+02      0.197585D+01      0.219843D+01
   yx         0.000000D+00      0.000000D+00      0.000000D+00
   yy         0.133337D+02      0.197585D+01      0.219843D+01
   zx        -0.485068D-04     -0.718797D-05     -0.799769D-05
   zy         0.000000D+00      0.000000D+00      0.000000D+00
   zz         0.150966D+02      0.223709D+01      0.248910D+01

 ----------------------------------------------------------------------
 Unable to Open any file for archive entry.
 1\1\GINC-NODE2-024\Freq\RB3LYP\6-311++G(3df,3pd)\H3N1\RUTHM\26-Jan-202
 1\0\\#P Geom=AllCheck Guess=TCheck SCRF=Check GenChk RB3LYP/6-311++G(3
 df,3pd) Freq\\title\\0,1\N,-3.444407099,2.7363742641,-0.6254270539\H,-
 2.4317972941,2.7593341132,-0.5930581309\H,-3.763233794,3.6967022647,-0
 .6808634029\H,-3.763236727,2.3666949051,0.2626260744\\Version=ES64L-G1
 6RevC.01\State=1-A1\HF=-56.5875477\RMSD=1.009e-10\RMSF=4.468e-05\ZeroP
 oint=0.0341802\Thermal=0.0370508\ETot=-56.5504969\HTot=-56.5495528\GTo
 t=-56.5713953\Dipole=0.198922,0.3255344,0.4588962\DipoleDeriv=-0.38286
 11,-0.0339413,-0.047846,-0.0339413,-0.4176622,-0.0782976,-0.047846,-0.
 0782976,-0.4724928,0.025241,-0.0308476,-0.0434853,-0.0414961,0.1839192
 ,0.0446368,-0.0584961,0.0446369,0.2151774,0.1788094,0.0233906,0.052052
 ,0.0330487,0.0171355,-0.0105782,0.0564831,-0.0256045,0.2283935,0.17880
 95,0.0413977,0.0392785,0.0423881,0.2166073,0.0442388,0.0498583,0.05926
 51,0.0289216\Polar=13.5295309,0.3205424,13.8582871,0.4518592,0.7395298
 ,14.3761685\Quadrupole=0.5247943,0.084461,-0.6092553,-0.4294136,-0.605
 3316,-0.9906205\PG=C03V [C3(N1),3SGV(H1)]\NImag=0\\0.59360205,-0.07862
 388,0.51297890,-0.11083375,-0.18137878,0.38596213,-0.42529923,0.004979
 67,0.00701855,0.45108567,-0.02582532,-0.04388671,0.02221725,0.00085616
 ,0.04522412,-0.03640628,0.02221735,-0.02832840,0.00120812,-0.01819863,
 0.03247996,-0.08415110,0.09942770,0.00749572,-0.01289319,0.04170588,-0
 .00313013,0.09275961,0.12736579,-0.38732333,0.04782316,-0.00515192,-0.
 00015815,-0.00316386,-0.12690533,0.40272548,0.02031545,0.00435152,-0.0
 2603993,-0.00252857,-0.00049721,-0.00258637,-0.00435453,-0.03934470,0.
 03330467,-0.08415171,-0.02578349,0.09631949,-0.01289331,-0.01673673,0.
 03832828,0.00428472,0.00469146,-0.01343235,0.09276033,-0.02291659,-0.0
 8176883,0.11133827,-0.00068392,-0.00117923,-0.00085487,-0.01422819,-0.
 01524410,0.03549039,0.03782871,0.09819217,0.12692458,0.15480981,-0.331
 59382,-0.00569811,-0.00352142,-0.00156516,-0.00001110,-0.00531454,-0.0
 0467833,-0.12121537,-0.14597375,0.33783725\\-0.00001738,-0.00002844,-0
 .00004009,-0.00007183,0.00002536,0.00003575,0.00004460,-0.00005661,0.0
 0004343,0.00004460,0.00005970,-0.00003908\\\@
 The archive entry for this job was punched.


 TRUTH, IN SCIENCE, CAN BE DEFINED AS THE WORKING HYPOTHESIS 
 BEST FITTED TO OPEN THE WAY TO THE NEXT BETTER ONE.

                              -- KONRAD LORENZ
 Job cpu time:       0 days  0 hours  2 minutes 10.7 seconds.
 Elapsed time:       0 days  0 hours  0 minutes  6.6 seconds.
 File lengths (MBytes):  RWF=     15 Int=      0 D2E=      0 Chk=      2 Scr=      1
 Normal termination of Gaussian 16 at Tue Jan 26 00:25:25 2021.
