 --invoking executable--
/home/orgChemistry/bin/cfour_v21/bin/xjoda


   *************************************************************************
         <<<     CCCCCC     CCCCCC   |||     CCCCCC     CCCCCC   >>>
       <<<      CCC        CCC       |||    CCC        CCC         >>>
      <<<      CCC        CCC        |||   CCC        CCC            >>>
    <<<        CCC        CCC        |||   CCC        CCC              >>>
      <<<      CCC        CCC        |||   CCC        CCC            >>>
       <<<      CCC        CCC       |||    CCC        CCC         >>>
         <<<     CCCCCC     CCCCCC   |||     CCCCCC     CCCCCC   >>>
   *************************************************************************

     ****************************************************************
     * CFOUR Coupled-Cluster techniques for Computational Chemistry *
     ****************************************************************
 

   Department of Chemistry                Institut fuer Physikalische Chemie
   University of Florida                  Universitaet Mainz
   Gainesville, FL 32611, USA             D-55099 Mainz, Germany

   Department of Chemistry                Fakultaet fuer Chemie und Biowiss.
   Johns Hopkins University               Karlsruher Institut fuer Technologie
   Baltimore, MD 21218, USA               D-76131 Karlsruhe, Germany

   Department of Chemistry                Department of Physical Chemistry
   Southern Methodist University          Eotvos Lorand University
   Dallas, TX 75275, USA                  H-1053 Budapest, Hungary

 
                       Version 2.1
 
                     node2-049                                         
                     Fri Jan 29 00:57:00 CET 2021                      
                     integer*8 version is running
 
********************************************************************************
*                          Input from ZMAT file                                *
********************************************************************************
title                                                                           
C                                                                               
N 1 R12                                                                         
O 1 R13 2 A213                                                                  
H 1 R14 3 A314 2 D2314                                                          
H 2 R25 1 A125 3 D3125                                                          
H 3 R36 1 A136 2 D2136                                                          
                                                                                
R12  =        1.264139219667722                                                 
R13  =        1.365154996740716                                                 
A213 =      124.415333284312212                                                 
R14  =        1.088175930611112                                                 
A314 =      115.176684875453589                                                 
D2314=      180.000000000000000                                                 
R25  =        1.021869861530533                                                 
A125 =      109.575981311385448                                                 
D3125=        0.000000000000000                                                 
R36  =        0.961562192765450                                                 
A136 =      108.785282542989052                                                 
D2136=      180.000000000000000                                                 
                                                                                
*CFOUR(CALC=CCSD(T),BASIS=cc-pVTZ,FROZEN_CORE=1                                 
       VIB=EXACT                                                                
       MEMORY_SIZE=5000,MEM_UNIT=MB,ABCDTYPE=AOBASIS,CC_PROG=ECC                
       MULTIPLICITY=1,CHARGE=0                                                  
       SCF_CONV=8,CC_CONV=10)                                                   
                                                                                
********************************************************************************
    -------------------------------------------------------------------
                    CFOUR Control Parameters 
    -------------------------------------------------------------------
        External           Internal           Value            Units
          Name               Name
    -------------------------------------------------------------------
       ABCDTYPE             IABCDT         AOBASIS     [  2]    ***   
       ANHARMONIC           IANHAR         OFF         [  0]    ***   
       ANH_ALGORIT          IANALG         STANDARD    [  0]    ***   
       ANH_DERIVAT          IANDER         SECOND      [  1]    ***   
       ANH_MODE             ANHMOD         VIBRATION   [  0]    ***   
       ANH_STEPSIZ          ICUBST             50000          x 10-6  
       ANH_SYMMETR          IANHSM         ABELIAN     [  0]    ***   
       AO_LADDERS           IAOLAD         SINGLEPASS  [  1]    ***   
       AV_SCF               IAVSCF         OFF         [  0]    ***   
       BASIS                IBASIS         PVTZ        [ 14]    ***   
       BOTHVECTORS          BOTHVC         OFF         [  0]    ***   
       BOX_POTENT           IPIAB          OFF         [  0]    ***   
       BREIT                IBREIT         OFF         [  0]    ***   
       BRUCK_CONV           IBRTOL          10D-  4             ***   
       BRUECKNER            IBRKNR         OFF         [  0]    ***   
       BUFFERSIZE           IBUFFS              4096            ***   
       CACHE_RECS           ICHREC             10               ***   
       CALCLEVEL            ICLLVL         CCSD(T)     [ 22]    ***   
       CCORBOPT             ICCORB         OFF         [  0]  x 0.01  
       CC_CONV              ICCCNV          10D- 10             ***   
       CC_EXPORDER          ICCEOR              5               ***   
       CC_EXTRAPOL          ICCEXT         DIIS        [  1]    ***   
       CC_GUESS             ICCGES         MP2         [  0]    ***   
       CC_MAXCYC            ICCCYC            100              cycles 
       CC_PROGRAM           ICCPRO         ECC         [  1]    ***   
       CHARGE               ICHRGE              0               ***   
       CHOLESKY             ICHOLE         OFF         [  0]    ***   
       CIS_CONV             ICISTL              5               ***   
       COMM_SIZE            IPSIZE            ***               ***   
       CONSTANT             ICONST         OLD         [  1]    ***   
       CONTINUUM            ICONTU         NONE        [  0]    ***   
       CONTRACTION          ICNTYP         GENERAL     [  1]    ***   
       COORDINATES          ICOORD         INTERNAL    [  0]    ***   
       CPHF_CONVER          ICPHFT          10D- 16             ***   
       CPHF_MAXCYC          ICPHFC             64              cycles 
       CUBIC                ICUBIC         OFF         [  0]    ***   
       CURVILINEAR          ICURVY         OFF         [  0]    ***   
       DBOC                 IDBOC          OFF         [  0]    ***   
       DCT                  IDCT           OFF         [  0]    ***   
       DERIV_LEV            IDRLVL         SECOND      [  2]    ***   
       DEVMEM_SIZE          IDVMEM         *********           MByte  
       DIAG_MRCC            IEOMST          10D-  0             ***   
       DIFF_TYPE            IDIFTY         RELAXED     [  0]    ***   
       DIRECT               IDIRCT         OFF         [  0]    ***   
       DROPMO               IDRPMO      NONE         
       ECP                  IECP           OFF         [  0]    ***   
       EIGENVECTOR          IVEC                1               ***   
       EL_ANHARM            IELANH         OFF         [  0]    ***   
       EOMFOLLOW            IEOMSR         ENERGY      [  0]    ***   
       EOMIP                IEOMIP         OFF         [  0]    ***   
       EOMLEVEL             HBARFM         SAME        [  0]    ***   
       EOM_MRCC             IMRCCE         NEW         [  1]    ***   
       EOM_NONIT            EOMNON         OFF         [  0]    ***   
       EOM_NSING            IEOMSI          10D-  0             ***   
       EOM_NSTATES          IMRCCD         DAVIDSON    [  0]    ***   
       EOM_NTRIP            IEOMTR          10D-  0             ***   
       EOM_ORDER            IEXORD         ENERGY      [  0]    ***   
       EOM_PROPSTA          IEOMST              0               ***   
       ESTATE_CONV          IEXTOL          10D-  5             ***   
       ESTATE_DIAG          IEXDIG         ITERATIVE   [  0]    ***   
       ESTATE_LOCK          IESLOC         ON          [  1]    ***   
       ESTATE_MAXC          IEXMXC             40               ***   
       ESTATE_PROP          IEXPRP         OFF         [  0]    ***   
       EVAL_HESS            IRECAL              0            # of cyc.
       EXCITATION           IEXCIT              0               ***   
       EXCITE               IEXCIT         NONE        [  0]    ***   
       EXTERN_POT           IEXPOT         OFF         [  0]    ***   
       FCGRADNEW            IFCGNW         OFF         [  0]    ***   
       FC_FIELD             IFINFC              0             x 10-6  
       FD_CALTYPE           IFDCAL         GRADONLY    [  0]    ***   
       FD_PROJECT           IFDPRJ         OFF         [  1]    ***   
       FD_STEPSIZE          IDISFD              0            10-4 bohr
       FD_USEGROUP          IFDGRP         FULL        [  0]    ***   
       FILE_RECSIZ          IFLREC              4096           words  
       FINITE_PERT          IFIPER              0             x 10-6  
       FIXGEOM              IFIXGM         OFF         [  0]    ***   
       FOCK                 IFOCK          AO          [  1]    ***   
       FREQ_ALGORI          IVIALG         STANDARD    [  0]    ***   
       FROZEN_CORE          IFROCO         ON          [  1]    ***   
       GAMMA_ABCD           IGABCD         DIRECT      [  1]    ***   
       GAMMA_ABCI           IGABCI         STORE       [  0]    ***   
       GENBAS_1             IGNBS1              0               ***   
       GENBAS_2             IGNBS2              0               ***   
       GENBAS_3             IGNBS3              0               ***   
       GENBAS_4             IGNBS4              0               ***   
       GEO_CONV             ICONTL              5              H/bohr 
       GEO_MAXCYC           IOPTCY             50               ***   
       GEO_MAXSTEP          IMXSTP            300            millibohr
       GEO_METHOD           INR            SINGLE_POINT[  5]    ***   
       GIAO                 IGIAO          OFF         [  1]    ***   
       GIMIC                IGIMIC         OFF         [  0]    ***   
       GRID                 IGRID          OFF         [  0]    ***   
       GRID_ALGO            IGALGO         SERIAL      [  0]    ***   
       GUESS                IGUESS         MOREAD      [  0]    ***   
       HBAR                 IHBAR          OFF         [  0]    ***   
       HESS_TYPE            IHESTP         SCF         [  0]    ***   
       HF2_FILE             IHF2Fl         USE         [  1]    ***   
       HFSTABILITY          ISTABL         OFF         [  0]    ***   
       INCORE               INCORE         OFF         [  0]    ***   
       INPUT_MRCC           IMRCC          ON          [  1]    ***   
       INTEGRALS            INTTYP         VMOL        [  1]    ***   
       JODA_PRINT           IJPRNT              0               ***   
       KEYWORD_OUT          IDMPKW         NO          [  0]    ***   
       LINDEP_TOL           ILINDP              8               ***   
       LINEQ_CONV           IZTACN          10D-  7           cycles  
       LINEQ_EXPOR          ILMAXD              5               ***   
       LINEQ_MAXCY          ILMAXC            100               ***   
       LINEQ_TYPE           ILTYPE         DIIS        [  1]    ***   
       LOCK_ORBOCC          ILOCOC         OFF         [  0]    ***   
       MEMORY_SIZE          IMEMSZ         625000000           words  
       MEM_UNIT             IMEMU          MB          [  2]    ***   
       MRCC                 IMRCCC         OFF         [  0]    ***   
       MULTIPLICTY          IMULTP              1               ***   
       NACOUPLING           IVCOUP         OFF         [  0]    ***   
       NEGEVAL              IDIE           ABORT       [  0]    ***   
       NEWNORM              INEWNO         OFF         [  0]    ***   
       NON-HF               INONHF         OFF         [  0]    ***   
       NTOP_TAMP            ITOPT2             15               ***   
       NUC_MODEL            INUCMO         POINT       [  0]    ***   
       OCCUPATION           IOCCU   ESTIMATED BY SCF 
       OPEN-SHELL           IOPEN          SPIN-ORBITAL[  0]    ***   
       OPTVIB               IOPTVB         OFF         [  0]    ***   
       ORBITALS             IORBTP         STANDARD    [  0]    ***   
       PARALLEL             IPARAL         ON          [  1]    ***   
       PARA_INT             IPINTS         ON          [  1]    ***   
       PARA_PRINT           IPPRIN              0               ***   
       PERT_ORB             IPTORB         CANONICAL   [  1]    ***   
       POINTS               IGRDFD              0               ***   
       PRINT                IPRNT               0               ***   
       PROPS                IPROPS         OFF         [  0]    ***   
       PROP_INTEGR          IINTYP         INTERNAL    [  0]    ***   
       PSI                  IPSI           OFF         [  0]    ***   
       QC_ALG               IQCALG         FLM         [  0]    ***   
       QC_LINALG            IQCLIN         TRIDIAG     [  2]    ***   
       QC_MAXCYC            IQCMAX          10D-100           cycles  
       QC_MAXSCFCY          IQCMSC          10D- 15           cycles  
       QC_RTRUST            IQCRTR          10D-  0           x 10-3  
       QC_SKIPSCF           IQCSKI         OFF         [  0]    ***   
       QC_START             IQCSTA          10D-  1             ***   
       QRHFGUESS            IQGUES         OFF         [  0]    ***   
       QUARTIC              IQUART         OFF         [  0]    ***   
       RAMAN_INT            IRAMIN         OFF         [  0]    ***   
       RAMAN_ORB            IRAMRE         UNRELAXED   [  0]    ***   
       RDO                  IRDOFM         ON          [  1]    ***   
       REDUCE_REPR          REDREP         Ir          [  0]    ***   
       REFERENCE            IREFNC         RHF         [  0]    ***   
       RELATIVIST           IRELAT         OFF         [  0]    ***   
       RELAX_DENS           IRDENS         ON          [  1]    ***   
       RESET_FLAGS          IRESET         OFF         [  0]    ***   
       RESTART_CC           ICCRES         OFF         [  0]    ***   
       ROT_EVEC             ROTVEC              0               ***   
       SAVE_INTS            ISVINT         OFF         [  0]    ***   
       SCALE_ON             ISTCRT              0               ***   
       SCF_CONV             ISCFCV          10D-  8             ***   
       SCF_DAMPING          IDAMP               0             x 10-3  
       SCF_EXPORDE          IRPPOR              6               ***   
       SCF_EXPSTAR          IRPPLS              8               ***   
       SCF_EXTRAPO          IRPP           ON          [  1]    ***   
       SCF_MAXCYC           ISCFCY            150              cycles 
       SCF_NOSTOP           ISCFST         OFF         [  0]    ***   
       SCF_PRINT            ISCFPR              0               ***   
       SCF_PROG             ISCFPR         SCF         [  0]    ***   
       SD_FIELD             IFINSD              0             x 10-6  
       SOPERT               IPERSO         OFF         [  0]    ***   
       SPHERICAL            IDFGHI         ON          [  1]    ***   
       SPINORBIT            ISOCAL         OFF         [  0]    ***   
       SPINROTATIO          ISRCON         OFF         [  0]    ***   
       SPIN_FLIP            ISPFLP         OFF         [  0]    ***   
       SPIN_ORBIT           ISPORB         OFF         [  0]    ***   
       SPIN_SCAL            ISCSMP         OFF         [  0]    ***   
       STEEPSCALE           ISTPSC              1000          x 10-3  
       SUBGROUP             ISUBGP         DEFAULT     [  0]    ***   
       SUBGRPAXIS           ISBXYZ         X           [  0]    ***   
       SYMMETRY             ISYM           ON          [  0]    ***   
       SYM_CHECK            ISYMCK         OVERRIDE    [  1]    ***   
       T3_EXTRAPOL          IT3EXT         OFF         [  0]    ***   
       T4_EXTRAPOL          IT4EXP         OFF         [  0]    ***   
       TAMP_SUM             IEVERY              5               ***   
       TESTSUITE            ITESTS         OFF         [  0]    ***   
       THERMOCH             ITHERM         ON          [  1]    ***   
       TOL_CHOLESK          ITOLCH          10D-  4             ***   
       TRANGRAD             IRESRM         OFF         [  0]    ***   
       TRANS_INV            ITRAIN         USE         [  0]    ***   
       TREAT_PERT           ITREAT         SIMULTANEOUS[  0]    ***   
       TRIP_ALGORI          ITRALG         NORMAL      [  0]    ***   
       UIJ_THRESHO          IUIJTH              1               ***   
       UNITS                IUNITS         ANGSTROM    [  0]    ***   
       UNOS                 IUNOS          OFF         [  0]    ***   
       UPDATE_HESS          IHUPDT         ON          [  1]    ***   
       VIBPHASE             ISETPH         STANDARD    [  0]    ***   
       VIBRATION            IVIB           ANALYTIC    [  1]    ***   
       VIB_ALGORIT          IGEALG         STANDARD    [  0]    ***   
       VNATORB              IVNORB         OFF         [  0]    ***   
       VTRAN                IVTRAN         PARTIAL     [  2]    ***   
       XFIELD               IXEFLD              0             x 10-6  
       XFORM_TOL            IXFTOL          10D- 11             ***   
       YFIELD               IYEFLD              0             x 10-6  
       ZFIELD               IZEFLD              0             x 10-6  
       ZSCALE_EXP           IZEXPS         OFF         [  0]    ***   
    -------------------------------------------------------------------
   6 entries found in Z-matrix 
   Job Title : title                                                                           
   There are 12 unique internal coordinates.
   Of these,  0 will be optimized.
   User supplied Z-matrix: 
--------------------------------------------------------------------------------
       SYMBOL    BOND      LENGTH    ANGLE     ANGLE     DIHED     ANGLE
                  TO      (ANGST)    WRT      (DEG)      WRT      (DEG)
--------------------------------------------------------------------------------
        C    
        N          1         R12  
        O          1         R13        2        A213 
        H          1         R14        3        A314       2        D2314
        H          2         R25        1        A125       3        D3125
        H          3         R36        1        A136       2        D2136
                  *Initial values for internal coordinates* 
                      Name             Value
                        R12             1.2641392197
                        R13             1.3651549967
                        A213          124.4153332843
                        R14             1.0881759306
                        A314          115.1766848755
                        D2314         180.0000000000
                        R25             1.0218698615
                        A125          109.5759813114
                        D3125           0.0000000000
                        R36             0.9615621928
                        A136          108.7852825430
                        D2136         180.0000000000
--------------------------------------------------------------------------------
   Rotational constants (in cm-1): 
          0.3233174010             0.3747312190             2.3565089807
   Rotational constants (in MHz): 
       9692.8131935984         11234.1608960548         70646.3718593457
********************************************************************************
   The full molecular point group is C s .
   The largest Abelian subgroup of the full molecular point group is C s .
   The computational point group is C s .
********************************************************************************
--------------------------------------------------------------------------------
   Analysis of internal coordinates specified by Z-matrix 
--------------------------------------------------------------------------------
   *The nuclear repulsion energy is   70.651320742366948 a.u.
   *There are   9 degrees of freedom within the tot. symm. molecular subspace.
   *Z-matrix requests optimization of   0 coordinates.
   *The optimization is constrained.
   *The following   9 parameters can have non-zero 
    derivatives within the totally symmetric subspace:
             A314 [ 5]  A136 [11]  A125 [ 8]  A213 [ 3]  R25  [ 7]  R14  [ 4]
             R36  [10]  R13  [ 2]  R12  [ 1]
   *The following   0 parameters are to be optimized:

   *The following coordinates must be varied in an  unconstrained optimization.
             A314 [ 5]  A136 [11]  A125 [ 8]  A213 [ 3]  R25  [ 7]  R14  [ 4]
             R36  [10]  R13  [ 2]  R12  [ 1]
--------------------------------------------------------------------------------


 ----------------------------------------------------------------
         Coordinates used in calculation (QCOMP) 
 ----------------------------------------------------------------
 Z-matrix   Atomic            Coordinates (in bohr)
  Symbol    Number           X              Y              Z
 ----------------------------------------------------------------
     C         6        -0.18333723     0.79728547    -0.00000000
     N         7        -2.31286487    -0.28523349    -0.00000000
     O         8         2.08082141    -0.43915977    -0.00000000
     H         1        -0.05915967     2.84988760     0.00000000
     H         1        -2.06515755    -2.20033476    -0.00000000
     H         1         3.41889098     0.79022396    -0.00000000
 ----------------------------------------------------------------
 
   Interatomic distance matrix (Angstroms) 
 
                 C             N             O             H             H    
                [ 1]        [ 2]        [ 3]        [ 4]        [ 5]
  C    [ 1]     0.00000
  N    [ 2]     1.26414     0.00000
  O    [ 3]     1.36516     2.32647     0.00000
  H    [ 4]     1.08818     2.04321     2.07646     0.00000
  H    [ 5]     1.87294     1.02187     2.38370     2.87557     0.00000
  H    [ 6]     1.90622     3.08604     0.96156     2.13902     3.30548
 
                 H    
                [ 6]
  H    [ 6]     0.00000
 rotcon2
   Rotational constants (in cm-1): 
          2.3565089807             0.3747312190             0.3233174010
   Rotational constants (in MHz): 
      70646.3718593456         11234.1608960548          9692.8131935984
  There are   3 frozen-core orbitals.
  There are  132 basis functions.
 @CHECKOUT-I, Total execution time (CPU/WALL):        0.11/       0.83 seconds.
--executable xjoda finished with status     0 in        3.30 seconds (walltime).
 --invoking executable--
/home/orgChemistry/bin/cfour_v21/bin/xvmol
 SERIAL VERSION OF MOLECULE STARTED
********************************************************************************
                    INPUT FROM MOL FILE
********************************************************************************
INTGRL        1    0    1    0    0    0    0    0    0                         
         *** CFOUR Program System (Release V0.1) ***                            
title                                                                           
    6    1 Z          0.10E-08              0    0                              
   9999.00      3.00                                                            
          6.00000000    1    4    1    1    1    1                              
C #1  -0.183337230289142   0.797285473600918  -0.000000000000000                
   10    4                                                                      
   8236.00000000000       5.310000000000000E-004 -1.130000000000000E-004        
  0.000000000000000E+000  0.000000000000000E+000                                
   1235.00000000000       4.108000000000000E-003 -8.780000000000000E-004        
  0.000000000000000E+000  0.000000000000000E+000                                
   280.800000000000       2.108700000000000E-002 -4.540000000000000E-003        
  0.000000000000000E+000  0.000000000000000E+000                                
   79.2700000000000       8.185300000000000E-002 -1.813300000000000E-002        
  0.000000000000000E+000  0.000000000000000E+000                                
   25.5900000000000       0.234817000000000      -5.576000000000000E-002        
  0.000000000000000E+000  0.000000000000000E+000                                
   8.99700000000000       0.434401000000000      -0.126895000000000             
  0.000000000000000E+000  0.000000000000000E+000                                
   3.31900000000000       0.346129000000000      -0.170352000000000             
  0.000000000000000E+000  0.000000000000000E+000                                
  0.905900000000000       3.937800000000000E-002  0.140382000000000             
   1.00000000000000       0.000000000000000E+000                                
  0.364300000000000      -8.983000000000000E-003  0.598684000000000             
  0.000000000000000E+000  0.000000000000000E+000                                
  0.128500000000000       2.385000000000000E-003  0.395389000000000             
  0.000000000000000E+000   1.00000000000000                                     
    5    3                                                                      
   18.7100000000000       1.403100000000000E-002  0.000000000000000E+000        
  0.000000000000000E+000                                                        
   4.13300000000000       8.686600000000000E-002  0.000000000000000E+000        
  0.000000000000000E+000                                                        
   1.20000000000000       0.290216000000000       0.000000000000000E+000        
  0.000000000000000E+000                                                        
  0.382700000000000       0.501008000000000        1.00000000000000             
  0.000000000000000E+000                                                        
  0.120900000000000       0.343406000000000       0.000000000000000E+000        
   1.00000000000000                                                             
    2    2                                                                      
   1.09700000000000        1.00000000000000       0.000000000000000E+000        
  0.318000000000000       0.000000000000000E+000   1.00000000000000             
    1    1                                                                      
  0.761000000000000        1.00000000000000                                     
          7.00000000    1    4    1    1    1    1                              
N #2  -2.312864868754048  -0.285233493118047  -0.000000000000000                
   10    4                                                                      
   11420.0000000000       5.230000000000000E-004 -1.150000000000000E-004        
  0.000000000000000E+000  0.000000000000000E+000                                
   1712.00000000000       4.045000000000000E-003 -8.950000000000000E-004        
  0.000000000000000E+000  0.000000000000000E+000                                
   389.300000000000       2.077500000000000E-002 -4.624000000000000E-003        
  0.000000000000000E+000  0.000000000000000E+000                                
   110.000000000000       8.072699999999999E-002 -1.852800000000000E-002        
  0.000000000000000E+000  0.000000000000000E+000                                
   35.5700000000000       0.233074000000000      -5.733900000000000E-002        
  0.000000000000000E+000  0.000000000000000E+000                                
   12.5400000000000       0.433501000000000      -0.132076000000000             
  0.000000000000000E+000  0.000000000000000E+000                                
   4.64400000000000       0.347472000000000      -0.172510000000000             
  0.000000000000000E+000  0.000000000000000E+000                                
   1.29300000000000       4.126200000000000E-002  0.151814000000000             
   1.00000000000000       0.000000000000000E+000                                
  0.511800000000000      -8.508000000000000E-003  0.599944000000000             
  0.000000000000000E+000  0.000000000000000E+000                                
  0.178700000000000       2.384000000000000E-003  0.387462000000000             
  0.000000000000000E+000   1.00000000000000                                     
    5    3                                                                      
   26.6300000000000       1.467000000000000E-002  0.000000000000000E+000        
  0.000000000000000E+000                                                        
   5.94800000000000       9.176400000000000E-002  0.000000000000000E+000        
  0.000000000000000E+000                                                        
   1.74200000000000       0.298683000000000       0.000000000000000E+000        
  0.000000000000000E+000                                                        
  0.555000000000000       0.498487000000000        1.00000000000000             
  0.000000000000000E+000                                                        
  0.172500000000000       0.337023000000000       0.000000000000000E+000        
   1.00000000000000                                                             
    2    2                                                                      
   1.65400000000000        1.00000000000000       0.000000000000000E+000        
  0.469000000000000       0.000000000000000E+000   1.00000000000000             
    1    1                                                                      
   1.09300000000000        1.00000000000000                                     
          8.00000000    1    4    1    1    1    1                              
O #3   2.080821411125226  -0.439159772559364  -0.000000000000000                
   10    4                                                                      
   15330.0000000000       5.080000000000000E-004 -1.150000000000000E-004        
  0.000000000000000E+000  0.000000000000000E+000                                
   2299.00000000000       3.929000000000000E-003 -8.950000000000000E-004        
  0.000000000000000E+000  0.000000000000000E+000                                
   522.400000000000       2.024300000000000E-002 -4.636000000000000E-003        
  0.000000000000000E+000  0.000000000000000E+000                                
   147.300000000000       7.918100000000000E-002 -1.872400000000000E-002        
  0.000000000000000E+000  0.000000000000000E+000                                
   47.5500000000000       0.230687000000000      -5.846300000000000E-002        
  0.000000000000000E+000  0.000000000000000E+000                                
   16.7600000000000       0.433118000000000      -0.136463000000000             
  0.000000000000000E+000  0.000000000000000E+000                                
   6.20700000000000       0.350260000000000      -0.175740000000000             
  0.000000000000000E+000  0.000000000000000E+000                                
   1.75200000000000       4.272800000000000E-002  0.160934000000000             
   1.00000000000000       0.000000000000000E+000                                
  0.688200000000000      -8.154000000000000E-003  0.603418000000000             
  0.000000000000000E+000  0.000000000000000E+000                                
  0.238400000000000       2.381000000000000E-003  0.378765000000000             
  0.000000000000000E+000   1.00000000000000                                     
    5    3                                                                      
   34.4600000000000       1.592800000000000E-002  0.000000000000000E+000        
  0.000000000000000E+000                                                        
   7.74900000000000       9.974000000000000E-002  0.000000000000000E+000        
  0.000000000000000E+000                                                        
   2.28000000000000       0.310492000000000       0.000000000000000E+000        
  0.000000000000000E+000                                                        
  0.715600000000000       0.491026000000000        1.00000000000000             
  0.000000000000000E+000                                                        
  0.214000000000000       0.336337000000000       0.000000000000000E+000        
   1.00000000000000                                                             
    2    2                                                                      
   2.31400000000000        1.00000000000000       0.000000000000000E+000        
  0.645000000000000       0.000000000000000E+000   1.00000000000000             
    1    1                                                                      
   1.42800000000000        1.00000000000000                                     
          1.00000000    1    3    1    1    1                                   
H #4  -0.059159671750141   2.849887595624997   0.000000000000000                
    5    3                                                                      
   33.8700000000000       6.068000000000000E-003  0.000000000000000E+000        
  0.000000000000000E+000                                                        
   5.09500000000000       4.530800000000000E-002  0.000000000000000E+000        
  0.000000000000000E+000                                                        
   1.15900000000000       0.202822000000000       0.000000000000000E+000        
  0.000000000000000E+000                                                        
  0.325800000000000       0.503903000000000        1.00000000000000             
  0.000000000000000E+000                                                        
  0.102700000000000       0.383421000000000       0.000000000000000E+000        
   1.00000000000000                                                             
    2    2                                                                      
   1.40700000000000        1.00000000000000       0.000000000000000E+000        
  0.388000000000000       0.000000000000000E+000   1.00000000000000             
    1    1                                                                      
   1.05700000000000        1.00000000000000                                     
          1.00000000    1    3    1    1    1                                   
H #5  -2.065157545334115  -2.200334760716996  -0.000000000000000                
    5    3                                                                      
   33.8700000000000       6.068000000000000E-003  0.000000000000000E+000        
  0.000000000000000E+000                                                        
   5.09500000000000       4.530800000000000E-002  0.000000000000000E+000        
  0.000000000000000E+000                                                        
   1.15900000000000       0.202822000000000       0.000000000000000E+000        
  0.000000000000000E+000                                                        
  0.325800000000000       0.503903000000000        1.00000000000000             
  0.000000000000000E+000                                                        
  0.102700000000000       0.383421000000000       0.000000000000000E+000        
   1.00000000000000                                                             
    2    2                                                                      
   1.40700000000000        1.00000000000000       0.000000000000000E+000        
  0.388000000000000       0.000000000000000E+000   1.00000000000000             
    1    1                                                                      
   1.05700000000000        1.00000000000000                                     
          1.00000000    1    3    1    1    1                                   
H #6   3.418890978128530   0.790223961058567  -0.000000000000000                
    5    3                                                                      
   33.8700000000000       6.068000000000000E-003  0.000000000000000E+000        
  0.000000000000000E+000                                                        
   5.09500000000000       4.530800000000000E-002  0.000000000000000E+000        
  0.000000000000000E+000                                                        
   1.15900000000000       0.202822000000000       0.000000000000000E+000        
  0.000000000000000E+000                                                        
  0.325800000000000       0.503903000000000        1.00000000000000             
  0.000000000000000E+000                                                        
  0.102700000000000       0.383421000000000       0.000000000000000E+000        
   1.00000000000000                                                             
    2    2                                                                      
   1.40700000000000        1.00000000000000       0.000000000000000E+000        
  0.388000000000000       0.000000000000000E+000   1.00000000000000             
    1    1                                                                      
   1.05700000000000        1.00000000000000                                     
FINISH                                                                          
 
********************************************************************************
 ONE- AND TWO-ELECTRON INTEGRALS OVER SYMMETRY-ADAPTED AOS ARE CALCULATED.

  SPHERICAL HARMONICS ARE USED.
  
  INTEGRALS LESS THAN  0.10E-13 ARE NEGLECTED.

  NUCLEAR REPULSION ENERGY :   70.6513207424 A.U.
  @MOLECU-I, ONE ELECTRON INTEGRALS (CPU/WALL):        0.04/       0.05 SECONDS.
  @TWOEL-I,    8721613 INTEGRALS OF SYMMETRY TYPE  I I I I
  @TWOEL-I,    7068909 INTEGRALS OF SYMMETRY TYPE  I J I J
  @TWOEL-I,    3660264 INTEGRALS OF SYMMETRY TYPE  I I J J
  @TWOEL-I, TOTAL NUMBER OF 2-E INTEGRALS   19450786.
  @MOLECU-I, TWO ELECTRON INTEGRALS (CPU/WALL):        7.39/       7.94 SECONDS.
 @CHECKOUT-I, Total execution time (CPU/WALL):        7.44/       8.04 seconds.

Running with 24 threads/proc

--executable xvmol finished with status     0 in        9.91 seconds (walltime).
 --invoking executable--
/home/orgChemistry/bin/cfour_v21/bin/xvmol2ja
 @GETMEM-I,  Allocated    4768 MB of main memory.
 @CHECKOUT-I, Total execution time (CPU/WALL):        0.01/       0.05 seconds.
--executable xvmol2ja finished with status     0 in        0.20 seconds (walltime).
 --invoking executable--
/home/orgChemistry/bin/cfour_v21/bin/xvscf
  There are  132 functions in the AO basis.

  There are 2 irreducible representations.

       Irrep        # of functions
         1                 90
         2                 42


  Parameters for SCF calculation: 
        SCF reference function:  RHF  
  Maximum number of iterations:  150
     Full symmetry point group: C s 
     Computational point group: C s 
        Initial density matrix: MOREAD                 
     SCF convergence tolerance: 10**(- 8)
  DIIS convergence acceleration:  ON
          Latest start for DIIS:   8
                     DIIS order:   6

  Memory information:     834884 words required.
  Fock matrices are constructed from AO integral file.
 @GETMEM-I,  Allocated       6 MB of main memory.
  Initialization and symmetry analysis required      0.002 seconds.

  @INITGES-I, Occupancies from core Hamiltonian:

          Alpha population by irrep:  10    2
           Beta population by irrep:  10    2


 total no. of electrons in initial guess :  0.000000000000000E+000
  --------------------------------------------------------------------
  Iteration         Total Energy            Largest Density Difference
  --------------------------------------------------------------------
       0            70.651320742366948              0.0000000000D+00
   current occupation vector 
    10  2
    10  2
       1          -138.621900149112264              0.1527503506D+02
   current occupation vector 
    10  2
    10  2
       2          -143.346349503953007              0.6939066674D+02
   current occupation vector 
    11  1
    11  1
       3          -143.800186796916449              0.6951671147D+02
   current occupation vector 
    10  2
    10  2
       4          -127.128626697109610              0.7405993303D+01
   current occupation vector 
    10  2
    10  2
       5          -123.605141768421845              0.8206078606D+01
   current occupation vector 
     9  3
     9  3
       6          -120.850017410732534              0.8673677322D+01
   current occupation vector 
    10  2
    10  2
       7          -120.268087261761337              0.8674274907D+01
   current occupation vector 
     9  3
     9  3
       8          -122.132762006114064              0.8680891813D+01
   current occupation vector 
    10  2
    10  2
       9          -156.971842265351569              0.8666720698D+01
   current occupation vector 
    10  2
    10  2
      10          -168.217119904573593              0.2071254735D+01
   current occupation vector 
    10  2
    10  2
      11          -168.753936084124973              0.8887493894D+00
   current occupation vector 
    10  2
    10  2
      12          -168.941427520666281              0.4658998580D+00
   current occupation vector 
    10  2
    10  2
      13          -168.971491940005166              0.1849657745D+00
   current occupation vector 
    10  2
    10  2
      14          -168.973711196359034              0.2865012487D-01
   current occupation vector 
    10  2
    10  2
      15          -168.974225749058064              0.2331023159D-01
   current occupation vector 
    10  2
    10  2
      16          -168.974348654670052              0.1366882087D-01
   current occupation vector 
    10  2
    10  2
      17          -168.974358822360784              0.4845297655D-02
   current occupation vector 
    10  2
    10  2
      18          -168.974359415175797              0.1077248995D-02
   current occupation vector 
    10  2
    10  2
      19          -168.974359436334964              0.2034815396D-03
   current occupation vector 
    10  2
    10  2
      20          -168.974359437696990              0.5487342235D-04
   current occupation vector 
    10  2
    10  2
      21          -168.974359438032337              0.2742144074D-04
   current occupation vector 
    10  2
    10  2
      22          -168.974359438052204              0.6621950614D-05
   current occupation vector 
    10  2
    10  2
      23          -168.974359438056524              0.2128708168D-05
   current occupation vector 
    10  2
    10  2
      24          -168.974359438054364              0.8305115879D-06
   current occupation vector 
    10  2
    10  2
      25          -168.974359438055728              0.2010151158D-06
   current occupation vector 
    10  2
    10  2
      26          -168.974359438054933              0.5389933377D-07
   current occupation vector 
    10  2
    10  2
      27          -168.974359438055984              0.1243877157D-07
   current occupation vector 
    10  2
    10  2

  SCF has converged.

 Density matrix saved to file den.dat
 total electron number:   24.0000000000002     
     E(SCF)=      -168.974359438055700              0.5841115369D-08

  Eigenvector printing suppressed.

 @PUTMOS-I, Writing converged MOs to NEWMOS. 
 @PUTMOS-I, Symmetry   1 Full Blocks 22 Partial Blocksize   2
 @PUTMOS-I, Symmetry   2 Full Blocks 10 Partial Blocksize   2
 @PUTFOCK-I, Writing converged Fock matrix to NEWFOCK. 
 @PUTFOCK-I, Symmetry   1 Full Blocks 22 Partial Blocksize   2
 @PUTFOCK-I, Symmetry   2 Full Blocks 10 Partial Blocksize   2


 
  ORBITAL EIGENVALUES (ALPHA)  (1H = 27.2113834 eV)

       MO #        E(hartree)               E(eV)           FULLSYM    COMPSYM
       ----   --------------------   --------------------   -------   ---------
    1     1         -20.6095330507        -560.8139055364     A'        A'  (1)
    2     2         -15.5422266106        -422.9254871913     A'        A'  (1)
    3     3         -11.3430978325        -308.6613840649     A'        A'  (1)
    4     4          -1.4287412842         -38.8780268625     A'        A'  (1)
    5     5          -1.1954533958         -32.5299406895     A'        A'  (1)
    6     6          -0.8439777453         -22.9658020076     A'        A'  (1)
    7     7          -0.7686913284         -20.9171544526     A'        A'  (1)
    8     8          -0.6657670664         -18.1164428984     A'        A'  (1)
    9    91          -0.6031292832         -16.4119821657     A''       A'' (2)
   10     9          -0.5613577034         -15.2753196913     A'        A'  (1)
   11    10          -0.4510785606         -12.2744716552     A'        A'  (1)
   12    92          -0.4152984158         -11.3008444170     A''       A'' (2)
  +++++++++++++++++++++++++++++++++++++++++++++++++++++++++++++++++++++++++++++
   13    11           0.1257346220           3.4214130069     A'        A'  (1)
   14    93           0.1767270604           4.8089877985     A''       A'' (2)
   15    12           0.1811466850           4.9292518970     A'        A'  (1)
   16    13           0.1953558590           5.3159031775     A'        A'  (1)
   17    14           0.3400934174           9.2544123728     A'        A'  (1)
   18    15           0.3569938088           9.7142954024     A'        A'  (1)
   19    94           0.4420827618          12.0296835245     A''       A'' (2)
   20    16           0.4937949150          13.4368427528     A'        A'  (1)
   21    17           0.5266909076          14.3319882196     A'        A'  (1)
   22    18           0.5336913822          14.5224808173     A'        A'  (1)
   23    19           0.6061110347          16.4931197484     A'        A'  (1)
   24    20           0.6284167000          17.1000877585     A'        A'  (1)
   25    21           0.6651193577          18.0988178491     A'        A'  (1)
   26    22           0.7048229818          19.1792083879     A'        A'  (1)
   27    95           0.7099471644          19.3186444839     A''       A'' (2)
   28    96           0.7413353564          20.1727606118     A''       A'' (2)
   29    23           0.7504417111          20.4205571210     A'        A'  (1)
   30    24           0.7809386081          21.2504198768     A'        A'  (1)
   31    25           0.8102689356          22.0485386644     A'        A'  (1)
   32    97           0.8251350749          22.4530668799     A''       A'' (2)
   33    98           0.8798861485          23.9429193362     A''       A'' (2)
   34    99           0.9555196545          26.0010116639     A''       A'' (2)
   35    26           1.0282278715          27.9795028345     A'        A'  (1)
   36    27           1.0508678912          28.5955690899     A'        A'  (1)
   37   100           1.0999482117          29.9311125093     A''       A'' (2)
   38    28           1.1319787465          30.8027076709     A'        A'  (1)
   39    29           1.1936440502          32.4807058937     A'        A'  (1)
   40   101           1.2744852235          34.6805060533     A''       A'' (2)
   41    30           1.2754695130          34.7072899320     A'        A'  (1)
   42    31           1.4089909245          38.3405922526     A'        A'  (1)
   43    32           1.4567686579          39.6406904763     A'        A'  (1)
   44    33           1.5480594268          42.1248385883     A'        A'  (1)
   45    34           1.5737161271          42.8229928981     A'        A'  (1)
   46   102           1.6827949699          45.7911791087     A''       A'' (2)
   47    35           1.6845680161          45.8394261493     A'        A'  (1)
   48   103           1.7459418034          47.5094918061     A''       A'' (2)
   49    36           1.7954723679          48.8572869858     A'        A'  (1)
   50    37           1.8483455682          50.2960399122     A'        A'  (1)
   51    38           1.9876952887          54.0879385827     A'        A'  (1)
   52   104           2.0899758133          56.8711331513     A''       A'' (2)
   53   105           2.1204958739          57.7016262216     A''       A'' (2)
   54    39           2.1524303314          58.5706069885     A'        A'  (1)
   55    40           2.2483441047          61.1805534469     A'        A'  (1)
   56    41           2.3387996310          63.6419734547     A'        A'  (1)
   57   106           2.4043640665          65.4260724456     A''       A'' (2)
   58    42           2.4214487686          65.8909708248     A'        A'  (1)
   59    43           2.5794059615          70.1892045630     A'        A'  (1)
   60    44           2.7234990076          74.1101756857     A'        A'  (1)
   61    45           2.7875885041          75.8541395478     A'        A'  (1)
   62    46           2.8923685862          78.7053505345     A'        A'  (1)
   63   107           2.9696276226          80.8076757929     A''       A'' (2)
   64    47           2.9975889841          81.5685431217     A'        A'  (1)
   65   108           3.1103814326          84.6377816830     A''       A'' (2)
   66   109           3.2073166717          87.2755236375     A''       A'' (2)
   67   110           3.2598273856          88.7044128064     A''       A'' (2)
   68    48           3.2809403089          89.2789246570     A'        A'  (1)
   69    49           3.3292670150          90.5939611855     A'        A'  (1)
   70    50           3.3918982181          92.2982428674     A'        A'  (1)
   71   111           3.3999909216          92.5184565251     A''       A'' (2)
   72    51           3.4062069028          92.6876019721     A'        A'  (1)
   73   112           3.4581815207          94.1019032267     A''       A'' (2)
   74    52           3.4607841165          94.1727234597     A'        A'  (1)
   75    53           3.5005790100          95.2555975641     A'        A'  (1)
   76   113           3.5917376052          97.7361490486     A''       A'' (2)
   77    54           3.6888575671         100.3789175653     A'        A'  (1)
   78   114           3.7094389468         100.9389653811     A''       A'' (2)
   79    55           3.7624784406         102.3822433802     A'        A'  (1)
   80    56           3.7873731674         103.0596633372     A'        A'  (1)
   81   115           3.8012586925         103.4375076832     A''       A'' (2)
   82   116           3.8668794738         105.2231399218     A''       A'' (2)
   83    57           3.8731790193         105.3945592717     A'        A'  (1)
   84   117           3.9748990720         108.1625026246     A''       A'' (2)
   85    58           3.9839624021         108.4091283739     A'        A'  (1)
   86    59           4.1072212942         111.7631733449     A'        A'  (1)
   87   118           4.1161527602         112.0062108911     A''       A'' (2)
   88    60           4.1330186548         112.4651552152     A'        A'  (1)
   89   119           4.1564544277         113.1028750173     A''       A'' (2)
   90    61           4.2022737994         114.3496835061     A'        A'  (1)
   91   120           4.2616060592         115.9641963757     A''       A'' (2)
   92    62           4.2626701044         115.9931505183     A'        A'  (1)
   93    63           4.3612236945         118.6749300441     A'        A'  (1)
   94    64           4.4228286428         120.3512859110     A'        A'  (1)
   95   121           4.5488090488         123.7793870403     A''       A'' (2)
   96    65           4.5708801243         124.3799715380     A'        A'  (1)
   97    66           4.6139962927         125.5532221275     A'        A'  (1)
   98    67           4.7057906535         128.0510736733     A'        A'  (1)
   99   122           4.9070601457         133.5278949907     A''       A'' (2)
  100    68           4.9779814497         135.4577617859     A'        A'  (1)
  101    69           5.0489475525         137.3888476171     A'        A'  (1)
  102   123           5.1422292887         139.9271727061     A''       A'' (2)
  103    70           5.1973726302         141.4276993122     A'        A'  (1)
  104   124           5.2324101659         142.3811191295     A''       A'' (2)
  105    71           5.2658548927         143.2911964139     A'        A'  (1)
  106   125           5.2889297850         143.9190961548     A''       A'' (2)
  107    72           5.3802530641         146.4041289166     A'        A'  (1)
  108    73           5.4947538838         149.5198546196     A'        A'  (1)
  109    74           5.6205717424         152.9435326108     A'        A'  (1)
  110   126           5.6462505289         153.6422879156     A''       A'' (2)
  111    75           5.6776358470         154.4963258374     A'        A'  (1)
  112    76           5.8081629570         158.0481490721     A'        A'  (1)
  113    77           5.9472231335         161.8321688504     A'        A'  (1)
  114   127           5.9760433159         162.6164058832     A''       A'' (2)
  115   128           6.0880288449         165.6636870478     A''       A'' (2)
  116    78           6.2226144295         169.3259469926     A'        A'  (1)
  117   129           6.3103181648         171.7124869590     A''       A'' (2)
  118    79           6.3626564551         173.1366842420     A'        A'  (1)
  119    80           6.4687279276         176.0230357473     A'        A'  (1)
  120    81           6.8437722886         186.2285116487     A'        A'  (1)
  121   130           6.9252484942         188.4455919156     A''       A'' (2)
  122    82           6.9312116707         188.6078581980     A'        A'  (1)
  123   131           7.0494758307         191.8259895991     A''       A'' (2)
  124    83           7.2208668377         196.4897760009     A'        A'  (1)
  125   132           7.2389454527         196.9817201262     A''       A'' (2)
  126    84           7.2702926146         197.8347197674     A'        A'  (1)
  127    85           7.5440307015         205.2835118002     A'        A'  (1)
  128    86           7.7236765447         210.1719237148     A'        A'  (1)
  129    87           7.8759794092         214.3162953534     A'        A'  (1)
  130    88          10.6852553279         290.7605794534     A'        A'  (1)
  131    89          12.7168275605         346.0424703813     A'        A'  (1)
  132    90          14.3408622395         390.2347006849     A'        A'  (1)


  VSCF finished.

 @CHECKOUT-I, Total execution time (CPU/WALL):        5.73/      10.58 seconds.
--executable xvscf finished with status     0 in       10.76 seconds (walltime).
 --invoking executable--
/home/orgChemistry/bin/cfour_v21/bin/xvtran
 @GETMEM-I,  Allocated    4768 MB of main memory.
  Partial RHF integral transformation
  Frozen-core orbitals requested within analytic derivative calculation
  Transformation of IIII integrals :
  1 pass through the AO integral file was required.
     8721613 AO integrals were read.
     3207686 MO integrals were written to HF2.
  Transformation of IIJJ integrals :
  1 pass through the AO integral file was required.
     3660264 AO integrals were read.
     1040985 MO integrals were written to HF2.
  Transformation of IJIJ integrals :
  1 pass through the AO integral file was required.
     7068909 AO integrals were read.
     2024490 MO integrals were written to HF2.
  Summary of active molecular orbitals: 
------------------------------------------------------------------------
 
  Index      Eigenvalue    Symmetry    Index      Eigenvalue    Symmetry
------------------------------------------------------------------------
     1       -20.6095331        1        67         4.5708801        1
     2       -15.5422266        1        68         4.6139963        1
     3       -11.3430978        1        69         4.7057907        1
     4        -1.4287413        1        70         4.9779814        1
     5        -1.1954534        1        71         5.0489476        1
     6        -0.8439777        1        72         5.1973726        1
     7        -0.7686913        1        73         5.2658549        1
     8        -0.6657671        1        74         5.3802531        1
     9        -0.5613577        1        75         5.4947539        1
    10        -0.4510786        1        76         5.6205717        1
    11        -0.6031293        2        77         5.6776358        1
    12        -0.4152984        2        78         5.8081630        1
    13         0.1257346        1        79         5.9472231        1
    14         0.1811467        1        80         6.2226144        1
    15         0.1953559        1        81         6.3626565        1
    16         0.3400934        1        82         6.4687279        1
    17         0.3569938        1        83         6.8437723        1
    18         0.4937949        1        84         6.9312117        1
    19         0.5266909        1        85         7.2208668        1
    20         0.5336914        1        86         7.2702926        1
    21         0.6061110        1        87         7.5440307        1
    22         0.6284167        1        88         7.7236765        1
    23         0.6651194        1        89         7.8759794        1
    24         0.7048230        1        90        10.6852553        1
    25         0.7504417        1        91        12.7168276        1
    26         0.7809386        1        92        14.3408622        1
    27         0.8102689        1        93         0.1767271        2
    28         1.0282279        1        94         0.4420828        2
    29         1.0508679        1        95         0.7099472        2
    30         1.1319787        1        96         0.7413354        2
    31         1.1936441        1        97         0.8251351        2
    32         1.2754695        1        98         0.8798861        2
    33         1.4089909        1        99         0.9555197        2
    34         1.4567687        1       100         1.0999482        2
    35         1.5480594        1       101         1.2744852        2
    36         1.5737161        1       102         1.6827950        2
    37         1.6845680        1       103         1.7459418        2
    38         1.7954724        1       104         2.0899758        2
    39         1.8483456        1       105         2.1204959        2
    40         1.9876953        1       106         2.4043641        2
    41         2.1524303        1       107         2.9696276        2
    42         2.2483441        1       108         3.1103814        2
    43         2.3387996        1       109         3.2073167        2
    44         2.4214488        1       110         3.2598274        2
    45         2.5794060        1       111         3.3999909        2
    46         2.7234990        1       112         3.4581815        2
    47         2.7875885        1       113         3.5917376        2
    48         2.8923686        1       114         3.7094389        2
    49         2.9975890        1       115         3.8012587        2
    50         3.2809403        1       116         3.8668795        2
    51         3.3292670        1       117         3.9748991        2
    52         3.3918982        1       118         4.1161528        2
    53         3.4062069        1       119         4.1564544        2
    54         3.4607841        1       120         4.2616061        2
    55         3.5005790        1       121         4.5488090        2
    56         3.6888576        1       122         4.9070601        2
    57         3.7624784        1       123         5.1422293        2
    58         3.7873732        1       124         5.2324102        2
    59         3.8731790        1       125         5.2889298        2
    60         3.9839624        1       126         5.6462505        2
    61         4.1072213        1       127         5.9760433        2
    62         4.1330187        1       128         6.0880288        2
    63         4.2022738        1       129         6.3103182        2
    64         4.2626701        1       130         6.9252485        2
    65         4.3612237        1       131         7.0494758        2
    66         4.4228286        1       132         7.2389455        2
------------------------------------------------------------------------
  -20.6095330506561       -15.5422266106219       -11.3430978325363     
  -1.42874128415450       -1.19545339578478      -0.843977745268084     
 -0.768691328374065      -0.665767066379941      -0.561357703381375     
 -0.451078560570968      -0.603129283227841      -0.415298415773177     
  0.125734622038055       0.181146684991836       0.195355858956009     
  0.340093417403531       0.356993808790207       0.493794914990320     
  0.526690907584947       0.533691382161761       0.606111034708986     
  0.628416699993210       0.665119357698809       0.704822981836950     
  0.750441711132450       0.780938608095748       0.810268935624991     
   1.02822787152094        1.05086789118868        1.13197874647082     
   1.19364405022020        1.27546951295459        1.40899092445984     
   1.45676865794117        1.54805942678857        1.57371612712877     
   1.68456801609381        1.79547236785344        1.84834556820639     
   1.98769528868355        2.15243033136425        2.24834410465445     
   2.33879963099335        2.42144876856052        2.57940596151473     
   2.72349900761442        2.78758850414698        2.89236858624664     
   2.99758898408959        3.28094030886404        3.32926701497527     
   3.39189821813232        3.40620690280887        3.46078411653605     
   3.50057901003849        3.68885756706301        3.76247844055493     
   3.78737316740593        3.87317901932720        3.98396240206956     
   4.10722129419241        4.13301865480223        4.20227379935818     
   4.26267010439041        4.36122369449773        4.42282864277446     
   4.57088012430824        4.61399629272587        4.70579065352740     
   4.97798144970076        5.04894755248104        5.19737263017040     
   5.26585489269710        5.38025306411458        5.49475388375918     
   5.62057174244183        5.67763584696771        5.80816295697997     
   5.94722313347722        6.22261442954094        6.36265645509246     
   6.46872792756732        6.84377228864921        6.93121167070132     
   7.22086683769802        7.27029261464856        7.54403070151275     
   7.72367654467681        7.87597940917028        10.6852553278628     
   12.7168275605327        14.3408622394725       0.176727060430171     
  0.442082761751081       0.709947164386503       0.741335356429637     
  0.825135074899737       0.879886148536616       0.955519654467165     
   1.09994821172187        1.27448522346507        1.68279496986897     
   1.74594180338899        2.08997581325799        2.12049587385544     
   2.40436406645790        2.96962762256784        3.11038143260912     
   3.20731667165231        3.25982738556557        3.39999092163508     
   3.45818152070429        3.59173760524765        3.70943894682926     
   3.80125869246428        3.86687947375174        3.97489907200522     
   4.11615276021343        4.15645442771984        4.26160605916325     
   4.54880904880160        4.90706014566870        5.14222928872278     
   5.23241016586737        5.28892978498273        5.64625052894473     
   5.97604331587298        6.08802884486032        6.31031816482278     
   6.92524849418885        7.04947583073198        7.23894545273881     
 @CHECKOUT-I, Total execution time (CPU/WALL):        1.81/       2.24 seconds.
--executable xvtran finished with status     0 in        2.34 seconds (walltime).
 --invoking executable--
/home/orgChemistry/bin/cfour_v21/bin/xintprc
 @GETMEM-I,  Allocated    4768 MB of main memory.
  @GMOIAA-I, Processing MO integrals for spin case AA.
  @GMOIAA-I, Generation of integral list completed.
                      TYPE                NUMBER
                      ----               --------
                      PPPP                     0
                      PPPH               5364800
                      PPHH                544720
                      PHPH                299480
                      PHHH                 62240
                      HHHH                  1921

                     TOTAL               6273161

  @FORMT2-I, Second-order MP correlation energies:
            ------------------------------------------------
            E(SCF)                  =   -168.974359438056 a.u.
            E2(AA)                  =     -0.075418075836 a.u.
            E2(AB)                  =     -0.455841121503 a.u.
            E2(TOT)                 =     -0.606677273175 a.u.
            Total MP2 energy        =   -169.581036711231 a.u.
            ------------------------------------------------
   Largest T2 amplitudes for spin case AB:
       _       _                 _       _                 _       _
   i   j   a   b             i   j   a   b             i   j   a   b
-----------------------------------------------------------------------------
[ 12  12  93  93]-0.07653 [ 11  11  93  93]-0.02851 [ 12  12  95  95]-0.02259
[ 12  12  95  93]-0.02257 [ 12  12  93  95]-0.02257 [ 11  11  97  97]-0.01837
[ 12  11  93  93]-0.01785 [ 11  12  93  93]-0.01785 [  7   7  19  19]-0.01739
[  6   6  93  93]-0.01709 [ 12  10  93  17]-0.01623 [ 10  12  17  93]-0.01623
[ 10  10  23  23]-0.01498 [ 12  12  94  94]-0.01433 [ 10  10  18  18]-0.01400
-----------------------------------------------------------------------------
   Norm of T2AB vector (  1088000 symmetry allowed elements):  0.3528293375.
-----------------------------------------------------------------------------
 @CHECKOUT-I, Total execution time (CPU/WALL):        0.47/       1.17 seconds.
--executable xintprc finished with status     0 in        1.37 seconds (walltime).
  calling xecc 
 --invoking executable--
/home/orgChemistry/bin/cfour_v21/bin/xecc
 @GETMEM-I,  Allocated    4768 MB of main memory.
 CCSD(T) energy will be calculated.
 AO based algorithm is used. 
   Frozen core orbitals in analytic derivative calculation
 Largest T2 amplitudes for spin case AB:
        _       _                 _       _                 _       _
    i   j   a   b             i   j   a   b             i   j   a   b
 -----------------------------------------------------------------------------
 [ 12  12  93  93]-0.07653 [ 11  11  93  93]-0.02851 [ 12  12  95  95]-0.02259
 [ 12  12  95  93]-0.02257 [ 12  12  93  95]-0.02257 [ 11  11  97  97]-0.01837
 [ 12  11  93  93]-0.01785 [ 11  12  93  93]-0.01785 [  7   7  19  19]-0.01739
 [  6   6  93  93]-0.01709 [ 12  10  93  17]-0.01623 [ 10  12  17  93]-0.01623
 [ 10  10  23  23]-0.01498 [ 12  12  94  94]-0.01433 [ 10  10  18  18]-0.01400
 -----------------------------------------------------------------------------
 Norm of T2AB vector (  1088000 symmetry allowed elements):  0.3528293375.
 -----------------------------------------------------------------------------
 The total correlation energy is -0.606677273175 a.u.
 Resorts of amplitudes and integrals (CPU/WALL):       0.03/       0.06 seconds.
 Starting iterative solution of the CC equations.
 The DIIS procedure is used to accelerate convergence.
 5 expansion vectors are used in the DIIS extrapolation.
 Convergence criterium is 10**(-10).
 Maximum number of iterations is 100.
 >>>>>>>>>>>>>>>>>>>>>>>>>>>>>>>>>>>>>>>>>>>>>>>>>>>>>>>>>>>>>>>>>>>>>>>>>>>>>>>
 Iteration Nr.   1 started:
 Generation of Intermediates required (CPU/WALL):      0.37/       0.64 seconds.
 Transformation of t(ab,ij) amplitudes required    0.0 seconds.
 Contraction of t(mu nu,ij) with AO integrals required    2.6 seconds.
 Backtransformation of t(mu nu,ij) increments required    0.0 seconds.
 Construction of Hbar required (CPU/WALL):             2.93/       3.33 seconds.
   Frozen core orbitals in analytic derivative calculation
 Amplitude changes are:
 -------------------------------------------------------------------
              Spin      RMS          Max.      Max. change for
  Amplitude   Case     Change       Change       i    j    a    b
 -------------------------------------------------------------------
     T1        AA    0.0000540657 0.0272976017   11        93
     T2        AB    0.0000000428 0.0046308352   11   11   93   93
 -------------------------------------------------------------------
 The total correlation energy is -0.600675260553 a.u.
 Convergence information after     1 iterations: 
 Largest element of residual vector :  0.27297602E-01.
 Largest element of DIIS residual   :  0.27297602E-01.
 Iteration Nr.   1 required (CPU/WALL):                3.39/       4.18 seconds.
 >>>>>>>>>>>>>>>>>>>>>>>>>>>>>>>>>>>>>>>>>>>>>>>>>>>>>>>>>>>>>>>>>>>>>>>>>>>>>>>
 Iteration Nr.   2 started:
 Generation of Intermediates required (CPU/WALL):      0.36/       0.63 seconds.
 Transformation of t(ab,ij) amplitudes required    0.0 seconds.
 Contraction of t(mu nu,ij) with AO integrals required    2.6 seconds.
 Backtransformation of t(mu nu,ij) increments required    0.0 seconds.
 Construction of Hbar required (CPU/WALL):             2.92/       3.29 seconds.
   Frozen core orbitals in analytic derivative calculation
 Amplitude changes are:
 -------------------------------------------------------------------
              Spin      RMS          Max.      Max. change for
  Amplitude   Case     Change       Change       i    j    a    b
 -------------------------------------------------------------------
     T1        AA    0.0000064636 0.0017688459   12        93
     T2        AB    0.0000000226-0.0111824179   12   12   93   93
 -------------------------------------------------------------------
 The total correlation energy is -0.617074602088 a.u.
 Convergence information after     2 iterations: 
 Largest element of residual vector : -0.11182418E-01.
 Largest element of DIIS residual   : -0.10141224E-01.
 Iteration Nr.   2 required (CPU/WALL):                3.41/       4.24 seconds.
 >>>>>>>>>>>>>>>>>>>>>>>>>>>>>>>>>>>>>>>>>>>>>>>>>>>>>>>>>>>>>>>>>>>>>>>>>>>>>>>
 Iteration Nr.   3 started:
 Generation of Intermediates required (CPU/WALL):      0.37/       0.63 seconds.
 Transformation of t(ab,ij) amplitudes required    0.0 seconds.
 Contraction of t(mu nu,ij) with AO integrals required    2.6 seconds.
 Backtransformation of t(mu nu,ij) increments required    0.0 seconds.
 Construction of Hbar required (CPU/WALL):             2.91/       3.31 seconds.
   Frozen core orbitals in analytic derivative calculation
 Amplitude changes are:
 -------------------------------------------------------------------
              Spin      RMS          Max.      Max. change for
  Amplitude   Case     Change       Change       i    j    a    b
 -------------------------------------------------------------------
     T1        AA    0.0000091945 0.0058756137   11        93
     T2        AB    0.0000000071-0.0032447301   12   12   93   93
 -------------------------------------------------------------------
 The total correlation energy is -0.616833253800 a.u.
 Convergence information after     3 iterations: 
 Largest element of residual vector :  0.58756137E-02.
 Largest element of DIIS residual   :  0.37302701E-02.
 Iteration Nr.   3 required (CPU/WALL):                3.43/       4.27 seconds.
 >>>>>>>>>>>>>>>>>>>>>>>>>>>>>>>>>>>>>>>>>>>>>>>>>>>>>>>>>>>>>>>>>>>>>>>>>>>>>>>
 Iteration Nr.   4 started:
 Generation of Intermediates required (CPU/WALL):      0.37/       0.64 seconds.
 Transformation of t(ab,ij) amplitudes required    0.0 seconds.
 Contraction of t(mu nu,ij) with AO integrals required    2.7 seconds.
 Backtransformation of t(mu nu,ij) increments required    0.0 seconds.
 Construction of Hbar required (CPU/WALL):             2.93/       3.39 seconds.
   Frozen core orbitals in analytic derivative calculation
 Amplitude changes are:
 -------------------------------------------------------------------
              Spin      RMS          Max.      Max. change for
  Amplitude   Case     Change       Change       i    j    a    b
 -------------------------------------------------------------------
     T1        AA    0.0000015958 0.0006064796   12        93
     T2        AB    0.0000000023-0.0012286371   12   12   93   93
 -------------------------------------------------------------------
 The total correlation energy is -0.618619385879 a.u.
 Convergence information after     4 iterations: 
 Largest element of residual vector : -0.12286371E-02.
 Largest element of DIIS residual   : -0.59930254E-03.
 Iteration Nr.   4 required (CPU/WALL):                3.49/       4.41 seconds.
 >>>>>>>>>>>>>>>>>>>>>>>>>>>>>>>>>>>>>>>>>>>>>>>>>>>>>>>>>>>>>>>>>>>>>>>>>>>>>>>
 Iteration Nr.   5 started:
 Generation of Intermediates required (CPU/WALL):      0.37/       0.63 seconds.
 Transformation of t(ab,ij) amplitudes required    0.0 seconds.
 Contraction of t(mu nu,ij) with AO integrals required    2.6 seconds.
 Backtransformation of t(mu nu,ij) increments required    0.0 seconds.
 Construction of Hbar required (CPU/WALL):             2.93/       3.31 seconds.
   Frozen core orbitals in analytic derivative calculation
 Amplitude changes are:
 -------------------------------------------------------------------
              Spin      RMS          Max.      Max. change for
  Amplitude   Case     Change       Change       i    j    a    b
 -------------------------------------------------------------------
     T1        AA    0.0000010520 0.0007039195   11        93
     T2        AB    0.0000000008-0.0004480251   12   12   93   93
 -------------------------------------------------------------------
 The total correlation energy is -0.618859387256 a.u.
 Convergence information after     5 iterations: 
 Largest element of residual vector :  0.70391949E-03.
 Largest element of DIIS residual   :  0.18871490E-03.
 Iteration Nr.   5 required (CPU/WALL):                3.53/       4.38 seconds.
 Largest T1 amplitudes for spin case AA:
    i       a                 i       a                 i       a    
 -----------------------------------------------------------------------------
 [ 11      93    ] 0.03564 [ 12      94    ] 0.01714 [ 10      13    ] 0.01322
 [ 10      17    ] 0.01116 [ 12     100    ]-0.01064 [ 12      95    ]-0.01016
 [ 11      94    ] 0.00899 [  9      15    ] 0.00855 [ 11      97    ] 0.00719
 [ 10      20    ]-0.00652 [ 12      98    ]-0.00629 [ 10      22    ]-0.00602
 [ 10      21    ] 0.00595 [ 10      24    ]-0.00595 [ 12      93    ] 0.00581
 -----------------------------------------------------------------------------
 Norm of T1AA vector (      880 symmetry allowed elements):  0.0586493075.
 -----------------------------------------------------------------------------
 Largest T2 amplitudes for spin case AB:
        _       _                 _       _                 _       _
    i   j   a   b             i   j   a   b             i   j   a   b
 -----------------------------------------------------------------------------
 [ 12  12  93  93]-0.09638 [ 11  11  93  93]-0.02856 [ 12  12  95  93]-0.02834
 [ 12  12  93  95]-0.02834 [ 12  11  93  93]-0.02421 [ 11  12  93  93]-0.02421
 [ 12  12  95  95]-0.02219 [  7   7  19  19]-0.01998 [ 11  11  97  97]-0.01873
 [  6   6  93  93]-0.01861 [ 12  12  94  93]-0.01690 [ 12  12  93  94]-0.01690
 [ 12  10  93  17]-0.01627 [ 10  12  17  93]-0.01627 [ 10  10  93  93]-0.01621
 -----------------------------------------------------------------------------
 Norm of T2AB vector (  1088000 symmetry allowed elements):  0.3854929065.
 -----------------------------------------------------------------------------
 >>>>>>>>>>>>>>>>>>>>>>>>>>>>>>>>>>>>>>>>>>>>>>>>>>>>>>>>>>>>>>>>>>>>>>>>>>>>>>>
 Iteration Nr.   6 started:
 Generation of Intermediates required (CPU/WALL):      0.36/       0.63 seconds.
 Transformation of t(ab,ij) amplitudes required    0.0 seconds.
 Contraction of t(mu nu,ij) with AO integrals required    2.6 seconds.
 Backtransformation of t(mu nu,ij) increments required    0.0 seconds.
 Construction of Hbar required (CPU/WALL):             2.91/       3.29 seconds.
   Frozen core orbitals in analytic derivative calculation
 Amplitude changes are:
 -------------------------------------------------------------------
              Spin      RMS          Max.      Max. change for
  Amplitude   Case     Change       Change       i    j    a    b
 -------------------------------------------------------------------
     T1        AA    0.0000002688 0.0001642851   11        93
     T2        AB    0.0000000002-0.0000611856   10   10   13   13
 -------------------------------------------------------------------
 The total correlation energy is -0.618874086647 a.u.
 Convergence information after     6 iterations: 
 Largest element of residual vector :  0.16428514E-03.
 Largest element of DIIS residual   :  0.77286100E-04.
 Iteration Nr.   6 required (CPU/WALL):                3.49/       4.36 seconds.
 >>>>>>>>>>>>>>>>>>>>>>>>>>>>>>>>>>>>>>>>>>>>>>>>>>>>>>>>>>>>>>>>>>>>>>>>>>>>>>>
 Iteration Nr.   7 started:
 Generation of Intermediates required (CPU/WALL):      0.36/       0.62 seconds.
 Transformation of t(ab,ij) amplitudes required    0.0 seconds.
 Contraction of t(mu nu,ij) with AO integrals required    2.6 seconds.
 Backtransformation of t(mu nu,ij) increments required    0.0 seconds.
 Construction of Hbar required (CPU/WALL):             2.88/       3.25 seconds.
   Frozen core orbitals in analytic derivative calculation
 Amplitude changes are:
 -------------------------------------------------------------------
              Spin      RMS          Max.      Max. change for
  Amplitude   Case     Change       Change       i    j    a    b
 -------------------------------------------------------------------
     T1        AA    0.0000000980 0.0000522815   11        93
     T2        AB    0.0000000001 0.0000268350   10   10   13   13
 -------------------------------------------------------------------
 The total correlation energy is -0.618876096845 a.u.
 Convergence information after     7 iterations: 
 Largest element of residual vector :  0.52281452E-04.
 Largest element of DIIS residual   :  0.31256738E-04.
 Iteration Nr.   7 required (CPU/WALL):                3.45/       4.30 seconds.
 >>>>>>>>>>>>>>>>>>>>>>>>>>>>>>>>>>>>>>>>>>>>>>>>>>>>>>>>>>>>>>>>>>>>>>>>>>>>>>>
 Iteration Nr.   8 started:
[...]
 H #6 z    0.000000    0.000000   -0.006123    0.000000    0.000000    0.006473


           O #3 x      O #3 y      O #3 z      H #4 x      H #4 y      H #4 z

 O #3 x    0.608868
 O #3 y    0.130236    0.437809
 O #3 z    0.000000    0.000000    0.020421

 H #4 x   -0.010054    0.035191    0.000000    0.070537
 H #4 y    0.005360   -0.013139    0.000000    0.016986    0.347202
 H #4 z    0.000000    0.000000    0.010669    0.000000    0.000000    0.026221

 H #5 x    0.004277    0.001112    0.000000   -0.003271   -0.001573    0.000000
 H #5 y    0.002989    0.003280    0.000000   -0.004735    0.000017    0.000000
 H #5 z    0.000000    0.000000   -0.010474    0.000000    0.000000    0.013732

 H #6 x   -0.287568   -0.209256    0.000000    0.002787    0.000376    0.000000
 H #6 y   -0.267335   -0.276192    0.000000    0.001916   -0.000302    0.000000
 H #6 z    0.000000    0.000000   -0.003345    0.000000    0.000000   -0.000725


           H #5 x      H #5 y      H #5 z      H #6 x      H #6 y      H #6 z

 H #5 x    0.047786
 H #5 y   -0.029601    0.426231
 H #5 z    0.000000    0.000000    0.026958

 H #6 x    0.000595    0.001428    0.000000    0.323418
 H #6 y    0.000457    0.000525    0.000000    0.237032    0.263878
 H #6 z    0.000000    0.000000   -0.001467    0.000000    0.000000    0.005188




                           Total dipole moment
                           -------------------

                               au             Debye

                    x      1.00856620      2.56352003
                    y      0.41611345      1.05765507

  Conversion factor used: 1 a.u. =   2.54174691 Debye 



                     Total dipole moment derivatives
                     -------------------------------


           Symmetry 1
                              Ex             Ey

               C #1 x     1.58129624     0.04498102
               C #1 y    -0.26670511     0.57794701
               N #2 x    -0.84415986    -0.19549519
               N #2 y    -0.22319733    -0.35615730
               O #3 x    -1.29296277     0.06600887
               O #3 y     0.49258340    -0.33581311
               H #4 x    -0.00094767    -0.03731461
               H #4 y    -0.01104884    -0.10168172
               H #5 x     0.25589488     0.14530276
               H #5 y     0.05363262     0.02478393
               H #6 x     0.30087918    -0.02348286
               H #6 y    -0.04526475     0.19092118

           Symmetry 2
                              Ez

               C #1 z     0.08622868
               N #2 z    -0.46680671
               O #3 z    -0.34635619
               H #4 z     0.12134777
               H #5 z     0.25489104
               H #6 z     0.35069542



                       Ex          Ey          Ez

      C #1    x    1.581296    0.044981    0.000000
      C #1    y   -0.266705    0.577947    0.000000
      C #1    z    0.000000    0.000000    0.086229

      N #2    x   -0.844160   -0.195495    0.000000
      N #2    y   -0.223197   -0.356157    0.000000
      N #2    z    0.000000    0.000000   -0.466807

      O #3    x   -1.292963    0.066009    0.000000
      O #3    y    0.492583   -0.335813    0.000000
      O #3    z    0.000000    0.000000   -0.346356

      H #4    x   -0.000948   -0.037315    0.000000
      H #4    y   -0.011049   -0.101682    0.000000
      H #4    z    0.000000    0.000000    0.121348

      H #5    x    0.255895    0.145303    0.000000
      H #5    y    0.053633    0.024784    0.000000
      H #5    z    0.000000    0.000000    0.254891

      H #6    x    0.300879   -0.023483    0.000000
      H #6    y   -0.045265    0.190921    0.000000
      H #6    z    0.000000    0.000000    0.350695

 @CHECKOUT-I, Total execution time (CPU/WALL):       53.99/      54.93 seconds.
--executable xvdint finished with status     0 in       54.94 seconds (walltime).
 --invoking executable--
/home/orgChemistry/bin/cfour_v21/bin/xjoda
  igrd and ihes are                      0                     0
  gradient from JOBARC 
   0.000000105370828   0.000000116116402   0.000000000000000
  -0.000000341270733  -0.000000015105988   0.000000000000000
   0.000000069257290  -0.000000208581244   0.000000000000000
   0.000000012766727   0.000000161193288   0.000000000000000
  -0.000000000050000  -0.000000168144866   0.000000000000000
   0.000000153925837   0.000000114522349   0.000000000000000
 
  masses used (in AMU) in vibrational analysis: 
  12.000000000     14.003074002     15.994914630
   1.007825035      1.007825035      1.007825035
                     Normal Coordinate Analysis
  ----------------------------------------------------------------
    Irreducible         Harmonic       Infrared        Type 
   Representation       Frequency      Intensity 
  ----------------------------------------------------------------
                       (cm-1)         (km/mol)
  ----------------------------------------------------------------
      ----                 0.5279i        3.4573       ROTATION  
      ----                 0.1883i        1.9339      TRANSLATION
      ----                 0.4119         0.0040      TRANSLATION
      ----                 0.6031         0.8413      TRANSLATION
      ----                 0.8163         9.2027       ROTATION  
      ----                 0.9623         3.5735       ROTATION  
       A''               384.2689       126.7968       VIBRATION 
        A'               569.2357        35.8437       VIBRATION 
       A''               866.1228        22.3125       VIBRATION 
       A''              1070.3535        57.2505       VIBRATION 
        A'              1077.9922        36.8366       VIBRATION 
        A'              1185.2212        24.4501       VIBRATION 
        A'              1322.2424       285.6332       VIBRATION 
        A'              1426.0167        21.0872       VIBRATION 
        A'              1747.1489       148.6664       VIBRATION 
        A'              3141.4080        22.3667       VIBRATION 
        A'              3462.5574         3.7613       VIBRATION 
        A'              3849.1824        63.6761       VIBRATION 
  ----------------------------------------------------------------
 
 
                                   Normal Coordinates 

               A''                        A'                       A''
               384.27                    569.24                    866.12 
             VIBRATION                 VIBRATION                 VIBRATION 
 C     -0.000 0.0000  0.1108    0.0054 -0.4610 -0.0000   -0.0000  0.0000  0.5894
 N      0.000-0.0000 -0.1014   -0.4067  0.2204 -0.0000   -0.0000 -0.0000 -0.3896
 O     -0.000 0.0000  0.2449    0.5060  0.1597  0.0000    0.0000  0.0000 -0.1801
 H     -0.000 0.0000  0.1287    0.0010 -0.1301 -0.0000   -0.0000  0.0000 -0.3515
 H      0.000-0.0000 -0.1755   -0.4590  0.0173  0.0000    0.0000 -0.0000  0.5799
 H     -0.000 0.0000 -0.9328   -0.0605  0.2457 -0.0000    0.0000 -0.0000 -0.0925

               A''                        A'                        A'
              1070.35                   1077.99                   1185.22 
             VIBRATION                 VIBRATION                 VIBRATION 
 C     -0.000 0.0000  0.2696    0.3347 -0.3537  0.0000    0.0443 -0.2155  0.0000
 N     -0.000-0.0000  0.1266    0.4144  0.0528  0.0000   -0.0955  0.1502  0.0000
 O      0.000-0.0000 -0.0219   -0.5521  0.2645  0.0000   -0.0721 -0.0720 -0.0000
 H     -0.000 0.0000 -0.7190    0.0721 -0.1011 -0.0000    0.3394 -0.0822 -0.0000
 H      0.000 0.0000 -0.6268   -0.3938 -0.0307 -0.0000    0.6027  0.0922 -0.0000
 H      0.000-0.0000  0.0312   -0.1784  0.1014  0.0000   -0.4514  0.4606  0.0000

                A'                        A'                        A'
              1322.24                   1426.02                   1747.15 
             VIBRATION                 VIBRATION                 VIBRATION 
 C      0.220-0.3140 -0.0000    0.1343 -0.2692  0.0000    0.7142  0.3041  0.0000
 N     -0.330 0.0265 -0.0000    0.0535  0.2748  0.0000   -0.4737 -0.2671  0.0000
 O     -0.140 0.3782 -0.0000   -0.0316 -0.0330 -0.0000   -0.0856 -0.0585  0.0000
 H      0.257-0.1123  0.0000   -0.8511 -0.0315  0.0000   -0.1390  0.1363 -0.0000
 H      0.339 0.0321  0.0000    0.3083  0.0898 -0.0000   -0.0715 -0.0910 -0.0000
 H      0.435-0.4417 -0.0000    0.0055 -0.0220  0.0000   -0.1475  0.1338 -0.0000

                A'                        A'                        A'
              3141.41                   3462.56                   3849.18 
             VIBRATION                 VIBRATION                 VIBRATION 
 C      0.032 0.2890  0.0000    0.0215 -0.0096  0.0000    0.0004  0.0104 -0.0000
 N     -0.011-0.0129  0.0000    0.0034 -0.2550 -0.0000   -0.0015  0.0005  0.0000
 O     -0.000-0.0057  0.0000    0.0018  0.0025 -0.0000    0.1841  0.1566  0.0000
 H     -0.058-0.9546 -0.0000   -0.0048  0.0162  0.0000   -0.0050 -0.0064 -0.0000
 H     -0.010 0.0137  0.0000   -0.0831  0.9629  0.0000   -0.0006 -0.0088 -0.0000
 H     -0.001 0.0145 -0.0000   -0.0061 -0.0055 -0.0000   -0.7236 -0.6464  0.0000
            Gradient vector in normal coordinate representation
         ----------------------------------------------------------
   i    W(I)     dE/dQ(i)     dE/dq      dE/dq     [dE/dQ(i)]/w(i)
                              (cm-1)      (eV)        (relative)
         ----------------------------------------------------------
    7   384.27 -0.0000000000     -0.00000     -0.00000  -0.0000000000
    8   569.24  0.0000000163      0.00165      0.00000  -0.0000000000
    9   866.12  0.0000000000      0.00000      0.00000  -0.0000000000
   10  1070.35  0.0000000000      0.00000      0.00000  -0.0000000000
   11  1077.99 -0.0000000890     -0.00653     -0.00000  -0.0000000000
   12  1185.22 -0.0000000363     -0.00254     -0.00000  -0.0000000000
   13  1322.24  0.0000000003      0.00002      0.00000  -0.0000000000
   14  1426.02 -0.0000000424     -0.00270     -0.00000  -0.0000000000
   15  1747.15  0.0000001058      0.00609      0.00000  -0.0000000000
   16  3141.41 -0.0000001428     -0.00614     -0.00000  -0.0000000000
   17  3462.56 -0.0000001593     -0.00652     -0.00000  -0.0000000000
   18  3849.18 -0.0000001888     -0.00733     -0.00000  -0.0000000000
         ----------------------------------------------------------
 
                      Normal modes in internal coordinates 
---------------------------------------------------------------------------
              0.528         0.188         0.412         0.603         0.816
---------------------------------------------------------------------------
R12       -0.000000     -0.000000      0.000000      0.000000     -0.000000
R13        0.000000      0.000000      0.000000     -0.000000     -0.000000
A213      -0.000000     -0.000000      0.000000      0.000000     -0.000000
R14       -0.000000     -0.000000      0.000000      0.000000     -0.000000
A314      -0.000000     -0.000000      0.000000      0.000000      0.000000
D2314      0.000000     -0.000000     -0.000000      0.000000     -0.000000
R25        0.000000      0.000000     -0.000000      0.000000      0.000000
A125       0.000000     -0.000000      0.000000     -0.000000     -0.000000
D3125     -0.000000     -0.000000      0.000000      0.000000     -0.000000
R36        0.000000      0.000000      0.000000     -0.000000     -0.000000
A136       0.000000     -0.000000      0.000000     -0.000000     -0.000000
D2136     -0.000000     -0.000000     -0.000000      0.000000     -0.000000
---------------------------------------------------------------------------
              0.962       384.269       569.236       866.123      1070.354
---------------------------------------------------------------------------
R12        0.000000     -0.000000      0.050008      0.000000      0.000000
R13       -0.000000      0.000000      0.118464      0.000000      0.000000
A213       0.000000     -0.000000      0.773523     -0.000000     -0.000000
R14        0.000000     -0.000000      0.015102      0.000000     -0.000000
A314      -0.000000      0.000000     -0.361778      0.000000      0.000000
D2314     -0.000001     -0.057399     -0.000000      0.635099      0.848224
R25       -0.000000     -0.000000     -0.015060      0.000000      0.000000
A125       0.000000     -0.000000      0.395236     -0.000000     -0.000000
D3125     -0.000000     -0.114005      0.000000      0.733930     -0.529209
R36       -0.000000      0.000000      0.004569     -0.000000      0.000000
A136       0.000000      0.000000     -0.312341      0.000000      0.000000
D2136     -0.000001     -0.991821     -0.000000     -0.240822     -0.021323
---------------------------------------------------------------------------
           1077.992      1185.221      1322.242      1426.017      1747.149
---------------------------------------------------------------------------
R12       -0.175157     -0.022696      0.155692     -0.096604      0.722195
R13       -0.769606     -0.089488     -0.299621     -0.153672     -0.295087
A213       0.145870      0.101629      0.187570      0.157315     -0.143726
R14       -0.000262      0.000094     -0.016378     -0.015069      0.053132
A314      -0.004194     -0.311383     -0.236628      0.862491      0.481419
D2314      0.000000      0.000000     -0.000000     -0.000000      0.000000
R25       -0.054325      0.053876      0.051240      0.044877      0.051357
A125       0.592345     -0.687206     -0.487950     -0.439770     -0.060500
D3125     -0.000000     -0.000000      0.000000      0.000000     -0.000000
R36       -0.015152      0.008815     -0.027886      0.001226      0.014928
A136      -0.040953     -0.639498      0.743670      0.052671     -0.359991
D2136     -0.000000     -0.000000      0.000000      0.000000     -0.000000
---------------------------------------------------------------------------
           3141.408      3462.557      3849.182
---------------------------------------------------------------------------
R12        0.048431      0.033331      0.001706
R13        0.030895     -0.006505      0.022371
A213      -0.058287     -0.022604      0.019318
R14       -0.994806      0.017625     -0.009421
A314       0.031670      0.005657     -0.018159
D2314     -0.000000     -0.000000      0.000000
R25       -0.017158     -0.998957      0.008518
A125       0.031257     -0.001815      0.001646
D3125      0.000000      0.000000     -0.000000
R36        0.009391     -0.008662     -0.999245
A136      -0.036080      0.000136      0.011792
D2136     -0.000000     -0.000000      0.000000
---------------------------------------------------------------------------
 
  ----------------------------------------------------------------
                    Dipole Moment Function
                   (Normal Coordinate Basis)
  ----------------------------------------------------------------
    Mode     Symmetry    d(Mu(x))/dQ   d(Mu(y))/dQ   d(Mu(z))/dQ
  ----------------------------------------------------------------
     Q7         A''        0.000000      0.000000     -0.360646
     Q8          A'       -0.171210     -0.086342     -0.000000
     Q9         A''       -0.000000     -0.000000      0.151287
     Q10        A''       -0.000000      0.000000     -0.242335
     Q11         A'        0.135477     -0.139400     -0.000000
     Q12         A'        0.066908      0.143540     -0.000000
     Q13         A'        0.529723     -0.111310      0.000000
     Q14         A'        0.146884      0.007483      0.000000
     Q15         A'        0.371184      0.121331     -0.000000
     Q16         A'        0.003161      0.151438      0.000000
     Q17         A'        0.053261      0.031962     -0.000000
     Q18         A'       -0.228835     -0.113808     -0.000000
  ----------------------------------------------------------------
---------------------------------------------------------------------------
------------------------------------------------------------
        Parameter                (MHz)                 (CM-1)
------------------------------------------------------------
 
           R6                -.112342E-03           -.374734E-08
           R5                0.953969E-03           0.318210E-07
           SI                            0.780863E+02
 
  A-reduced centrifugal distortion parameters (Ir representation) 
 
           DJ                0.799377E-02           0.266643E-06
           DK                0.133213E+01           0.444351E-04
           DJK               -.611677E-01           -.204033E-05
           DELJ              0.821845E-02           0.274138E-06
           DELK              0.133325E+01           0.444725E-04
           DELJK             -.625158E-01           -.208530E-05
           delJ              0.159442E-02           0.531843E-07
           delK              0.331817E-01           0.110682E-05
 
  S-reduced centrifugal distortion parameters (Ir representation) 
 
           DJ                0.800599E-02           0.267051E-06
           DK                0.133219E+01           0.444371E-04
           DJK               -.612410E-01           -.204278E-05
           D1                -.159442E-02           -.531843E-07
           D2                -.106234E-03           -.354358E-08
------------------------------------------------------------
   Rotationally projected vibrational frequencies 
            1               0.0000i
            2               0.0000i
            3               0.0000i
            4               0.0000 
            5               0.0000 
            6               0.0000 
            7             384.2689 
            8             569.2357 
            9             866.1228 
           10            1070.3535 
           11            1077.9922 
           12            1185.2212 
           13            1322.2424 
           14            1426.0167 
           15            1747.1489 
           16            3141.4080 
           17            3462.5574 
           18            3849.1824 
  Zero-point energy:   28.7369 kcal/mol =  120.2352 kJ/mol =   10050.875 cm-1 
 
  Finite temperature thermodynamic corrections:
=======================================================
Temperature     Entropy       Enthalpy     Gibbs Energy
    (K)        (J/(mol K))    (kJ/mol)      (kJ/mol) 
=======================================================
    298.15      253.3143       11.6372      -63.8884
    100.00      209.2068        3.3461      -17.5746
    200.00      235.0330        7.1125      -39.8941
    300.00      253.6302       11.7317      -64.3573
    400.00      269.7678       17.3659      -90.5412
    500.00      284.4886       23.9800     -118.2643
    600.00      298.0579       31.4341     -147.4007
    700.00      310.6070       39.5830     -177.8419
    800.00      322.2520       48.3097     -209.4919
    900.00      333.1016       57.5256     -242.2658
   1000.00      343.2517       67.1627     -276.0889
   1100.00      352.7837       77.1665     -310.8956
   1200.00      361.7661       87.4920     -346.6274
   1300.00      370.2562       98.1006     -383.2324
   1400.00      378.3022      108.9592     -420.6638
   1500.00      385.9456      120.0389     -458.8794
   1600.00      393.2220      131.3145     -497.8407
   1700.00      400.1627      142.7639     -537.5126
   1800.00      406.7950      154.3680     -577.8630
   1900.00      413.1431      166.1097     -618.8621
   2000.00      419.2286      177.9744     -660.4828
=======================================================
 @CHECKOUT-I, Total execution time (CPU/WALL):        0.03/       0.16 seconds.
--executable xjoda finished with status     0 in        0.18 seconds (walltime).
  The final electronic energy is      -169.619532019452464 a.u. 
  This computation required                         7250.03 seconds (walltime).

real	120m50.124s
user	78m15.250s
sys	16m48.700s
