 Entering Gaussian System, Link 0=/home/orgChemistry/bin/gaussian16-C.01/g16/g16
 Initial command:
 /home/orgChemistry/bin/gaussian16-C.01/g16/l1.exe "/scratch/agSchreiner/ruthm/140195/gaussian_iso3_HCNO_c16v.iso3_HCNO_c16v_b3lyp_6311_G_3df_3dp/Gau-11543.inp" -scrdir="/scratch/agSchreiner/ruthm/140195/gaussian_iso3_HCNO_c16v.iso3_HCNO_c16v_b3lyp_6311_G_3df_3dp/"
 Entering Link 1 = /home/orgChemistry/bin/gaussian16-C.01/g16/l1.exe PID=     11544.
  
 Copyright (c) 1988-2019, Gaussian, Inc.  All Rights Reserved.
  
 This is part of the Gaussian(R) 16 program.  It is based on
 the Gaussian(R) 09 system (copyright 2009, Gaussian, Inc.),
 the Gaussian(R) 03 system (copyright 2003, Gaussian, Inc.),
 the Gaussian(R) 98 system (copyright 1998, Gaussian, Inc.),
 the Gaussian(R) 94 system (copyright 1995, Gaussian, Inc.),
 the Gaussian 92(TM) system (copyright 1992, Gaussian, Inc.),
 the Gaussian 90(TM) system (copyright 1990, Gaussian, Inc.),
 the Gaussian 88(TM) system (copyright 1988, Gaussian, Inc.),
 the Gaussian 86(TM) system (copyright 1986, Carnegie Mellon
 University), and the Gaussian 82(TM) system (copyright 1983,
 Carnegie Mellon University). Gaussian is a federally registered
 trademark of Gaussian, Inc.
  
 This software contains proprietary and confidential information,
 including trade secrets, belonging to Gaussian, Inc.
  
 This software is provided under written license and may be
 used, copied, transmitted, or stored only in accord with that
 written license.
  
 The following legend is applicable only to US Government
 contracts under FAR:
  
                    RESTRICTED RIGHTS LEGEND
  
 Use, reproduction and disclosure by the US Government is
 subject to restrictions as set forth in subparagraphs (a)
 and (c) of the Commercial Computer Software - Restricted
 Rights clause in FAR 52.227-19.
  
 Gaussian, Inc.
 340 Quinnipiac St., Bldg. 40, Wallingford CT 06492
  
  
 ---------------------------------------------------------------
 Warning -- This program may not be used in any manner that
 competes with the business of Gaussian, Inc. or will provide
 assistance to any competitor of Gaussian, Inc.  The licensee
 of this program is prohibited from giving any competitor of
 Gaussian, Inc. access to this program.  By using this program,
 the user acknowledges that Gaussian, Inc. is engaged in the
 business of creating and licensing software in the field of
 computational chemistry and represents and warrants to the
 licensee that it is not a competitor of Gaussian, Inc. and that
 it will not use this program in any manner prohibited above.
 ---------------------------------------------------------------
  

 Cite this work as:
 Gaussian 16, Revision C.01,
 M. J. Frisch, G. W. Trucks, H. B. Schlegel, G. E. Scuseria, 
 M. A. Robb, J. R. Cheeseman, G. Scalmani, V. Barone, 
 G. A. Petersson, H. Nakatsuji, X. Li, M. Caricato, A. V. Marenich, 
 J. Bloino, B. G. Janesko, R. Gomperts, B. Mennucci, H. P. Hratchian, 
 J. V. Ortiz, A. F. Izmaylov, J. L. Sonnenberg, D. Williams-Young, 
 F. Ding, F. Lipparini, F. Egidi, J. Goings, B. Peng, A. Petrone, 
 T. Henderson, D. Ranasinghe, V. G. Zakrzewski, J. Gao, N. Rega, 
 G. Zheng, W. Liang, M. Hada, M. Ehara, K. Toyota, R. Fukuda, 
 J. Hasegawa, M. Ishida, T. Nakajima, Y. Honda, O. Kitao, H. Nakai, 
 T. Vreven, K. Throssell, J. A. Montgomery, Jr., J. E. Peralta, 
 F. Ogliaro, M. J. Bearpark, J. J. Heyd, E. N. Brothers, K. N. Kudin, 
 V. N. Staroverov, T. A. Keith, R. Kobayashi, J. Normand, 
 K. Raghavachari, A. P. Rendell, J. C. Burant, S. S. Iyengar, 
 J. Tomasi, M. Cossi, J. M. Millam, M. Klene, C. Adamo, R. Cammi, 
 J. W. Ochterski, R. L. Martin, K. Morokuma, O. Farkas, 
 J. B. Foresman, and D. J. Fox, Gaussian, Inc., Wallingford CT, 2019.
 
 ******************************************
 Gaussian 16:  ES64L-G16RevC.01  3-Jul-2019
                29-Jan-2021 
 ******************************************
 %Chk=file_name
 %NProcShared=24
 Will use up to   24 processors via shared memory.
 %mem=48000mb
 -------------------------------------------
 #p b3lyp/6-311++G(3df,3pd) opt freq=noraman
 -------------------------------------------
 1/18=20,19=15,26=3,38=1/1,3;
 2/9=110,12=2,17=6,18=5,40=1/2;
 3/5=4,6=6,7=1616,11=2,25=1,30=1,71=1,74=-5/1,2,3;
 4//1;
 5/5=2,38=5/2;
 6/7=2,8=2,9=2,10=2,28=1/1;
 7//1,2,3,16;
 1/18=20,19=15,26=3/3(2);
 2/9=110/2;
 99//99;
 2/9=110/2;
 3/5=4,6=6,7=1616,11=2,25=1,30=1,71=1,74=-5/1,2,3;
 4/5=5,16=3,69=1/1;
 5/5=2,38=5/2;
 7//1,2,3,16;
 1/18=20,19=15,26=3/3(-5);
 2/9=110/2;
 6/7=2,8=2,9=2,10=2,19=2,28=1/1;
 99/9=1/99;
 Leave Link    1 at Fri Jan 29 00:59:01 2021, MaxMem=  6291456000 cpu:               1.1 elap:               0.1
 (Enter /home/orgChemistry/bin/gaussian16-C.01/g16/l101.exe)
 -----
 title
 -----
 Symbolic Z-matrix:
 Charge =  0 Multiplicity = 1
 6                     0.        0.        1.22671 
 1                     0.        0.        2.28641 
 7                     0.        0.        0.07197 
 8                     0.        0.       -1.12739 
 
 ITRead=  0  0  0  0
 MicOpt= -1 -1 -1 -1
 NAtoms=      4 NQM=        4 NQMF=       0 NMMI=      0 NMMIF=      0
                NMic=       0 NMicF=      0.
                    Isotopes and Nuclear Properties:
 (Nuclear quadrupole moments (NQMom) in fm**2, nuclear magnetic moments (NMagM)
  in nuclear magnetons)

  Atom         1           2           3           4
 IAtWgt=          12           1          14          16
 AtmWgt=  12.0000000   1.0078250  14.0030740  15.9949146
 NucSpn=           0           1           2           0
 AtZEff=  -0.0000000  -0.0000000  -0.0000000  -0.0000000
 NQMom=    0.0000000   0.0000000   2.0440000   0.0000000
 NMagM=    0.0000000   2.7928460   0.4037610   0.0000000
 AtZNuc=   6.0000000   1.0000000   7.0000000   8.0000000
 Leave Link  101 at Fri Jan 29 00:59:01 2021, MaxMem=  6291456000 cpu:               8.1 elap:               0.4
 (Enter /home/orgChemistry/bin/gaussian16-C.01/g16/l103.exe)

 GradGradGradGradGradGradGradGradGradGradGradGradGradGradGradGradGradGrad
 Berny optimization.
 Initialization pass.
                           ----------------------------
                           !    Initial Parameters    !
                           ! (Angstroms and Degrees)  !
 --------------------------                            --------------------------
 ! Name  Definition              Value          Derivative Info.                !
 --------------------------------------------------------------------------------
 ! R1    R(1,2)                  1.0597         estimate D2E/DX2                !
 ! R2    R(1,3)                  1.1547         estimate D2E/DX2                !
 ! R3    R(3,4)                  1.1994         estimate D2E/DX2                !
 ! A1    L(2,1,3,-1,-1)        180.0            estimate D2E/DX2                !
 ! A2    L(1,3,4,-1,-1)        180.0            estimate D2E/DX2                !
 ! A3    L(2,1,3,-2,-2)        180.0            estimate D2E/DX2                !
 ! A4    L(1,3,4,-2,-2)        180.0            estimate D2E/DX2                !
 --------------------------------------------------------------------------------
 Trust Radius=3.00D-01 FncErr=1.00D-07 GrdErr=1.00D-06 EigMax=2.50D+02 EigMin=1.00D-04
 Number of steps in this run=     20 maximum allowed number of steps=    100.
 GradGradGradGradGradGradGradGradGradGradGradGradGradGradGradGradGradGrad

 Leave Link  103 at Fri Jan 29 00:59:01 2021, MaxMem=  6291456000 cpu:               0.3 elap:               0.1
 (Enter /home/orgChemistry/bin/gaussian16-C.01/g16/l202.exe)
                          Input orientation:                          
 ---------------------------------------------------------------------
 Center     Atomic      Atomic             Coordinates (Angstroms)
 Number     Number       Type             X           Y           Z
 ---------------------------------------------------------------------
      1          6           0        0.000000    0.000000    1.226707
      2          1           0        0.000000    0.000000    2.286405
      3          7           0        0.000000    0.000000    0.071969
      4          8           0        0.000000    0.000000   -1.127394
 ---------------------------------------------------------------------
                    Distance matrix (angstroms):
                    1          2          3          4
     1  C    0.000000
     2  H    1.059699   0.000000
     3  N    1.154738   2.214437   0.000000
     4  O    2.354100   3.413799   1.199362   0.000000
 Stoichiometry    CHNO
 Framework group  C*V[C*(HCNO)]
 Deg. of freedom     3
 Full point group                 C*V     NOp   4
 Largest Abelian subgroup         C2V     NOp   4
 Largest concise Abelian subgroup C1      NOp   1
                         Standard orientation:                         
 ---------------------------------------------------------------------
 Center     Atomic      Atomic             Coordinates (Angstroms)
 Number     Number       Type             X           Y           Z
 ---------------------------------------------------------------------
      1          6           0        0.000000    0.000000   -1.175285
      2          1           0        0.000000    0.000000   -2.234984
      3          7           0        0.000000    0.000000   -0.020547
      4          8           0        0.000000    0.000000    1.178815
 ---------------------------------------------------------------------
 Rotational constants (GHZ):           0.0000000          11.5571753          11.5571753
 Leave Link  202 at Fri Jan 29 00:59:02 2021, MaxMem=  6291456000 cpu:               0.4 elap:               0.0
 (Enter /home/orgChemistry/bin/gaussian16-C.01/g16/l301.exe)
 Standard basis: 6-311++G(3df,3pd) (5D, 7F)
 Ernie: Thresh=  0.10000D-02 Tol=  0.10000D-05 Strict=F.
 There are    73 symmetry adapted cartesian basis functions of A1  symmetry.
 There are    13 symmetry adapted cartesian basis functions of A2  symmetry.
 There are    34 symmetry adapted cartesian basis functions of B1  symmetry.
 There are    34 symmetry adapted cartesian basis functions of B2  symmetry.
 There are    60 symmetry adapted basis functions of A1  symmetry.
 There are    13 symmetry adapted basis functions of A2  symmetry.
 There are    31 symmetry adapted basis functions of B1  symmetry.
 There are    31 symmetry adapted basis functions of B2  symmetry.
   135 basis functions,   195 primitive gaussians,   154 cartesian basis functions
    11 alpha electrons       11 beta electrons
       nuclear repulsion energy        60.6541948418 Hartrees.
 IExCor=  402 DFT=T Ex+Corr=B3LYP ExCW=0 ScaHFX=  0.200000
 ScaDFX=  0.800000  0.720000  1.000000  0.810000 ScalE2=  1.000000  1.000000
 IRadAn=      5 IRanWt=     -1 IRanGd=            0 ICorTp=0 IEmpDi=  4
 NAtoms=    4 NActive=    4 NUniq=    4 SFac= 1.00D+00 NAtFMM=   60 NAOKFM=F Big=F
 Integral buffers will be    131072 words long.
 Raffenetti 2 integral format.
 Two-electron integral symmetry is turned on.
 Leave Link  301 at Fri Jan 29 00:59:02 2021, MaxMem=  6291456000 cpu:               1.3 elap:               0.1
 (Enter /home/orgChemistry/bin/gaussian16-C.01/g16/l302.exe)
 NPDir=0 NMtPBC=     1 NCelOv=     1 NCel=       1 NClECP=     1 NCelD=      1
         NCelK=      1 NCelE2=     1 NClLst=     1 CellRange=     0.0.
 One-electron integrals computed using PRISM.
 One-electron integral symmetry used in STVInt
 NBasis=   135 RedAO= T EigKep=  1.32D-04  NBF=    60    13    31    31
 NBsUse=   135 1.00D-06 EigRej= -1.00D+00 NBFU=    60    13    31    31
 Precomputing XC quadrature grid using
 IXCGrd= 4 IRadAn=           5 IRanWt=          -1 IRanGd=           0 AccXCQ= 0.00D+00.
 Generated NRdTot=       0 NPtTot=           0 NUsed=           0 NTot=          32
 NSgBfM=   154   154   154   154   154 MxSgAt=     4 MxSgA2=     4.
 Leave Link  302 at Fri Jan 29 00:59:03 2021, MaxMem=  6291456000 cpu:               2.9 elap:               0.2
 (Enter /home/orgChemistry/bin/gaussian16-C.01/g16/l303.exe)
 DipDrv:  MaxL=1.
 Leave Link  303 at Fri Jan 29 00:59:03 2021, MaxMem=  6291456000 cpu:               1.1 elap:               0.1
 (Enter /home/orgChemistry/bin/gaussian16-C.01/g16/l401.exe)
 ExpMin= 3.60D-02 ExpMax= 8.59D+03 ExpMxC= 1.30D+03 IAcc=3 IRadAn=         5 AccDes= 0.00D+00
 Harris functional with IExCor=  402 and IRadAn=       5 diagonalized for initial guess.
 HarFok:  IExCor=  402 AccDes= 0.00D+00 IRadAn=         5 IDoV= 1 UseB2=F ITyADJ=14
 ICtDFT=  3500011 ScaDFX=  1.000000  1.000000  1.000000  1.000000
 FoFCou: FMM=F IPFlag=           0 FMFlag=      100000 FMFlg1=           0
         NFxFlg=           0 DoJE=T BraDBF=F KetDBF=T FulRan=T
         wScrn=  0.000000 ICntrl=       500 IOpCl=  0 I1Cent=   200000004 NGrid=           0
         NMat0=    1 NMatS0=      1 NMatT0=    0 NMatD0=    1 NMtDS0=    0 NMtDT0=    0
 Petite list used in FoFCou.
 Harris En= -168.659088858967    
 JPrj=0 DoOrth=F DoCkMO=F.
 Initial guess orbital symmetries:
       Occupied  (SG) (SG) (SG) (SG) (SG) (SG) (SG) (PI) (PI) (PI)
                 (PI)
       Virtual   (PI) (PI) (SG) (SG) (SG) (PI) (PI) (SG) (PI) (PI)
                 (SG) (SG) (SG) (PI) (PI) (DLTA) (DLTA) (SG) (SG)
                 (PI) (PI) (SG) (PI) (PI) (SG) (DLTA) (DLTA) (SG)
                 (PI) (PI) (SG) (PI) (PI) (SG) (DLTA) (DLTA) (SG)
                 (PI) (PI) (SG) (SG) (PI) (PI) (SG) (PI) (PI) (SG)
                 (DLTA) (DLTA) (PI) (PI) (SG) (PI) (PI) (SG) (DLTA)
                 (DLTA) (SG) (PI) (PI) (SG) (DLTA) (DLTA) (PHI)
                 (PHI) (PI) (PI) (SG) (DLTA) (DLTA) (SG) (PI) (PI)
                 (DLTA) (DLTA) (SG) (PHI) (PHI) (PI) (PI) (SG)
                 (PI) (PI) (DLTA) (DLTA) (SG) (SG) (PI) (PI) (PHI)
                 (PHI) (SG) (PI) (PI) (DLTA) (DLTA) (SG) (PI) (PI)
                 (SG) (PI) (PI) (DLTA) (DLTA) (PI) (PI) (SG) (PI)
                 (PI) (SG) (SG) (DLTA) (DLTA) (PI) (PI) (SG) (DLTA)
                 (DLTA) (PI) (PI) (SG) (SG) (SG) (SG)
 The electronic state of the initial guess is 1-SG.
 Leave Link  401 at Fri Jan 29 00:59:03 2021, MaxMem=  6291456000 cpu:               3.8 elap:               0.2
 (Enter /home/orgChemistry/bin/gaussian16-C.01/g16/l502.exe)
 Keep R1 ints in memory in symmetry-blocked form, NReq=65693143.
 FoFCou: FMM=F IPFlag=           0 FMFlag=           0 FMFlg1=           0
         NFxFlg=           0 DoJE=F BraDBF=F KetDBF=F FulRan=T
         wScrn=  0.000000 ICntrl=       600 IOpCl=  0 I1Cent=           0 NGrid=           0
         NMat0=    1 NMatS0=   9180 NMatT0=    0 NMatD0=    1 NMtDS0=    0 NMtDT0=    0
 Petite list used in FoFCou.
 Closed shell SCF:
 Using DIIS extrapolation, IDIIS=  1040.
 NGot=  6291456000 LenX=  6280495259 LenY=  6280471102
 Requested convergence on RMS density matrix=1.00D-08 within 128 cycles.
 Requested convergence on MAX density matrix=1.00D-06.
 Requested convergence on             energy=1.00D-06.
 No special actions if energy rises.

 Cycle   1  Pass 1  IDiag  1:
 E= -168.583358617185    
 DIIS: error= 2.66D-02 at cycle   1 NSaved=   1.
 NSaved= 1 IEnMin= 1 EnMin= -168.583358617185     IErMin= 1 ErrMin= 2.66D-02
 ErrMax= 2.66D-02  0.00D+00 EMaxC= 1.00D-01 BMatC= 8.84D-02 BMatP= 8.84D-02
 IDIUse=3 WtCom= 7.34D-01 WtEn= 2.66D-01
 Coeff-Com:  0.100D+01
 Coeff-En:   0.100D+01
 Coeff:      0.100D+01
 Gap=     0.214 Goal=   None    Shift=    0.000
 GapD=    0.214 DampG=1.000 DampE=0.500 DampFc=0.5000 IDamp=-1.
 Damping current iteration by 5.00D-01
 RMSDP=3.52D-03 MaxDP=1.15D-01              OVMax= 1.21D-01

 Cycle   2  Pass 1  IDiag  1:
 E= -168.602738329626     Delta-E=       -0.019379712441 Rises=F Damp=T
 DIIS: error= 9.01D-03 at cycle   2 NSaved=   2.
 NSaved= 2 IEnMin= 2 EnMin= -168.602738329626     IErMin= 2 ErrMin= 9.01D-03
 ErrMax= 9.01D-03  0.00D+00 EMaxC= 1.00D-01 BMatC= 1.25D-02 BMatP= 8.84D-02
 IDIUse=3 WtCom= 9.10D-01 WtEn= 9.01D-02
 Coeff-Com:  0.157D+00 0.843D+00
 Coeff-En:   0.276D+00 0.724D+00
 Coeff:      0.167D+00 0.833D+00
 Gap=     0.278 Goal=   None    Shift=    0.000
 RMSDP=9.81D-04 MaxDP=3.83D-02 DE=-1.94D-02 OVMax= 9.81D-02

 Cycle   3  Pass 1  IDiag  1:
 E= -168.629206878331     Delta-E=       -0.026468548705 Rises=F Damp=F
 DIIS: error= 1.42D-02 at cycle   3 NSaved=   3.
 NSaved= 3 IEnMin= 3 EnMin= -168.629206878331     IErMin= 2 ErrMin= 9.01D-03
 ErrMax= 1.42D-02  0.00D+00 EMaxC= 1.00D-01 BMatC= 1.58D-02 BMatP= 1.25D-02
 IDIUse=2 WtCom= 0.00D+00 WtEn= 1.00D+00
 Coeff-En:   0.000D+00 0.000D+00 0.100D+01
 Coeff:      0.000D+00 0.000D+00 0.100D+01
 Gap=     0.254 Goal=   None    Shift=    0.000
 RMSDP=2.00D-03 MaxDP=3.88D-02 DE=-2.65D-02 OVMax= 1.60D-01

 Cycle   4  Pass 1  IDiag  1:
 E= -168.524771817322     Delta-E=        0.104435061009 Rises=F Damp=F
 DIIS: error= 5.37D-02 at cycle   4 NSaved=   4.
 NSaved= 4 IEnMin= 3 EnMin= -168.629206878331     IErMin= 2 ErrMin= 9.01D-03
 ErrMax= 5.37D-02  0.00D+00 EMaxC= 1.00D-01 BMatC= 1.47D-01 BMatP= 1.25D-02
 IDIUse=2 WtCom= 0.00D+00 WtEn= 1.00D+00
 Coeff-En:   0.000D+00 0.000D+00 0.846D+00 0.154D+00
 Coeff:      0.000D+00 0.000D+00 0.846D+00 0.154D+00
 Gap=     0.264 Goal=   None    Shift=    0.000
 RMSDP=1.06D-03 MaxDP=2.10D-02 DE= 1.04D-01 OVMax= 9.01D-02

 Cycle   5  Pass 1  IDiag  1:
 E= -168.630751629761     Delta-E=       -0.105979812438 Rises=F Damp=F
 DIIS: error= 1.47D-02 at cycle   5 NSaved=   5.
 NSaved= 5 IEnMin= 5 EnMin= -168.630751629761     IErMin= 2 ErrMin= 9.01D-03
 ErrMax= 1.47D-02  0.00D+00 EMaxC= 1.00D-01 BMatC= 1.41D-02 BMatP= 1.25D-02
 IDIUse=2 WtCom= 0.00D+00 WtEn= 1.00D+00
 Coeff-En:   0.000D+00 0.000D+00 0.476D+00 0.000D+00 0.524D+00
 Coeff:      0.000D+00 0.000D+00 0.476D+00 0.000D+00 0.524D+00
 Gap=     0.277 Goal=   None    Shift=    0.000
 RMSDP=5.30D-04 MaxDP=1.43D-02 DE=-1.06D-01 OVMax= 3.67D-02

 Cycle   6  Pass 1  IDiag  1:
 E= -168.641452720717     Delta-E=       -0.010701090956 Rises=F Damp=F
 DIIS: error= 1.37D-03 at cycle   6 NSaved=   6.
 NSaved= 6 IEnMin= 6 EnMin= -168.641452720717     IErMin= 6 ErrMin= 1.37D-03
 ErrMax= 1.37D-03  0.00D+00 EMaxC= 1.00D-01 BMatC= 1.66D-04 BMatP= 1.25D-02
 IDIUse=3 WtCom= 9.86D-01 WtEn= 1.37D-02
 Coeff-Com: -0.351D-02-0.418D-02 0.166D+00 0.457D-02 0.215D+00 0.621D+00
 Coeff-En:   0.000D+00 0.000D+00 0.000D+00 0.000D+00 0.000D+00 0.100D+01
 Coeff:     -0.346D-02-0.412D-02 0.164D+00 0.451D-02 0.212D+00 0.627D+00
 Gap=     0.275 Goal=   None    Shift=    0.000
 RMSDP=7.21D-05 MaxDP=2.24D-03 DE=-1.07D-02 OVMax= 5.06D-03

 Cycle   7  Pass 1  IDiag  1:
 E= -168.641569293195     Delta-E=       -0.000116572478 Rises=F Damp=F
 DIIS: error= 3.45D-04 at cycle   7 NSaved=   7.
 NSaved= 7 IEnMin= 7 EnMin= -168.641569293195     IErMin= 7 ErrMin= 3.45D-04
 ErrMax= 3.45D-04  0.00D+00 EMaxC= 1.00D-01 BMatC= 1.31D-05 BMatP= 1.66D-04
 IDIUse=3 WtCom= 9.97D-01 WtEn= 3.45D-03
 Coeff-Com: -0.349D-02 0.448D-02 0.482D-01-0.140D-01 0.105D+00 0.251D+00
 Coeff-Com:  0.608D+00
 Coeff-En:   0.000D+00 0.000D+00 0.000D+00 0.000D+00 0.000D+00 0.472D-01
 Coeff-En:   0.953D+00
 Coeff:     -0.348D-02 0.447D-02 0.481D-01-0.139D-01 0.105D+00 0.250D+00
 Coeff:      0.610D+00
 Gap=     0.275 Goal=   None    Shift=    0.000
 RMSDP=1.32D-05 MaxDP=4.13D-04 DE=-1.17D-04 OVMax= 9.05D-04

 Cycle   8  Pass 1  IDiag  1:
 E= -168.641580045695     Delta-E=       -0.000010752501 Rises=F Damp=F
 DIIS: error= 5.11D-05 at cycle   8 NSaved=   8.
 NSaved= 8 IEnMin= 8 EnMin= -168.641580045695     IErMin= 8 ErrMin= 5.11D-05
 ErrMax= 5.11D-05  0.00D+00 EMaxC= 1.00D-01 BMatC= 1.62D-07 BMatP= 1.31D-05
 IDIUse=1 WtCom= 1.00D+00 WtEn= 0.00D+00
 Coeff-Com: -0.119D-02 0.201D-02 0.218D-02-0.140D-02 0.574D-02 0.508D-01
 Coeff-Com:  0.728D-01 0.869D+00
 Coeff:     -0.119D-02 0.201D-02 0.218D-02-0.140D-02 0.574D-02 0.508D-01
 Coeff:      0.728D-01 0.869D+00
 Gap=     0.275 Goal=   None    Shift=    0.000
 RMSDP=2.25D-06 MaxDP=4.38D-05 DE=-1.08D-05 OVMax= 2.13D-04

 Cycle   9  Pass 1  IDiag  1:
 E= -168.641580210935     Delta-E=       -0.000000165240 Rises=F Damp=F
 DIIS: error= 8.63D-06 at cycle   9 NSaved=   9.
 NSaved= 9 IEnMin= 9 EnMin= -168.641580210935     IErMin= 9 ErrMin= 8.63D-06
 ErrMax= 8.63D-06  0.00D+00 EMaxC= 1.00D-01 BMatC= 4.91D-09 BMatP= 1.62D-07
 IDIUse=1 WtCom= 1.00D+00 WtEn= 0.00D+00
 Coeff-Com: -0.211D-04 0.416D-04-0.119D-02 0.280D-03-0.234D-02-0.177D-02
 Coeff-Com: -0.361D-02 0.150D+00 0.859D+00
 Coeff:     -0.211D-04 0.416D-04-0.119D-02 0.280D-03-0.234D-02-0.177D-02
 Coeff:     -0.361D-02 0.150D+00 0.859D+00
 Gap=     0.275 Goal=   None    Shift=    0.000
 RMSDP=3.26D-07 MaxDP=1.01D-05 DE=-1.65D-07 OVMax= 2.45D-05

 Cycle  10  Pass 1  IDiag  1:
 E= -168.641580215886     Delta-E=       -0.000000004951 Rises=F Damp=F
 DIIS: error= 1.45D-06 at cycle  10 NSaved=  10.
 NSaved=10 IEnMin=10 EnMin= -168.641580215886     IErMin=10 ErrMin= 1.45D-06
 ErrMax= 1.45D-06  0.00D+00 EMaxC= 1.00D-01 BMatC= 1.31D-10 BMatP= 4.91D-09
 IDIUse=1 WtCom= 1.00D+00 WtEn= 0.00D+00
 Coeff-Com:  0.192D-04-0.362D-04-0.771D-04 0.226D-04-0.804D-04-0.104D-02
 Coeff-Com: -0.808D-03-0.106D-01-0.217D-01 0.103D+01
 Coeff:      0.192D-04-0.362D-04-0.771D-04 0.226D-04-0.804D-04-0.104D-02
 Coeff:     -0.808D-03-0.106D-01-0.217D-01 0.103D+01
 Gap=     0.275 Goal=   None    Shift=    0.000
 RMSDP=5.70D-08 MaxDP=1.24D-06 DE=-4.95D-09 OVMax= 3.89D-06

 Cycle  11  Pass 1  IDiag  1:
 E= -168.641580215995     Delta-E=       -0.000000000109 Rises=F Damp=F
 DIIS: error= 8.19D-08 at cycle  11 NSaved=  11.
 NSaved=11 IEnMin=11 EnMin= -168.641580215995     IErMin=11 ErrMin= 8.19D-08
 ErrMax= 8.19D-08  0.00D+00 EMaxC= 1.00D-01 BMatC= 3.62D-13 BMatP= 1.31D-10
 IDIUse=1 WtCom= 1.00D+00 WtEn= 0.00D+00
 Coeff-Com:  0.139D-05-0.266D-05 0.196D-05-0.421D-06 0.121D-04-0.639D-04
 Coeff-Com: -0.222D-04-0.254D-02-0.943D-02 0.131D+00 0.881D+00
 Coeff:      0.139D-05-0.266D-05 0.196D-05-0.421D-06 0.121D-04-0.639D-04
 Coeff:     -0.222D-04-0.254D-02-0.943D-02 0.131D+00 0.881D+00
 Gap=     0.275 Goal=   None    Shift=    0.000
 RMSDP=3.15D-09 MaxDP=1.25D-07 DE=-1.09D-10 OVMax= 2.42D-07

 SCF Done:  E(RB3LYP) =  -168.641580216     A.U. after   11 cycles
            NFock= 11  Conv=0.31D-08     -V/T= 2.0038
 KE= 1.680002912000D+02 PE=-5.167888133128D+02 EE= 1.194927470550D+02
 Leave Link  502 at Fri Jan 29 00:59:05 2021, MaxMem=  6291456000 cpu:              22.6 elap:               1.1
 (Enter /home/orgChemistry/bin/gaussian16-C.01/g16/l601.exe)
 Copying SCF densities to generalized density rwf, IOpCl= 0 IROHF=0.

 **********************************************************************

            Population analysis using the SCF Density.

 **********************************************************************

 Orbital symmetries:
       Occupied  (SG) (SG) (SG) (SG) (SG) (SG) (SG) (PI) (PI) (PI)
                 (PI)
       Virtual   (PI) (PI) (SG) (SG) (PI) (PI) (SG) (SG) (PI) (PI)
                 (SG) (SG) (SG) (PI) (PI) (SG) (DLTA) (DLTA) (SG)
                 (PI) (PI) (SG) (PI) (PI) (SG) (DLTA) (DLTA) (PI)
                 (PI) (SG) (SG) (SG) (PI) (PI) (DLTA) (DLTA) (SG)
                 (PI) (PI) (SG) (SG) (PI) (PI) (SG) (PI) (PI) (SG)
                 (DLTA) (DLTA) (PI) (PI) (SG) (PI) (PI) (SG) (DLTA)
                 (DLTA) (SG) (SG) (PI) (PI) (DLTA) (DLTA) (PHI)
                 (PHI) (PI) (PI) (SG) (DLTA) (DLTA) (SG) (PI) (PI)
                 (DLTA) (DLTA) (SG) (PHI) (PHI) (PI) (PI) (SG)
                 (PI) (PI) (DLTA) (DLTA) (SG) (SG) (PI) (PI) (PHI)
                 (PHI) (SG) (PI) (PI) (DLTA) (DLTA) (SG) (PI) (PI)
                 (SG) (PI) (PI) (DLTA) (DLTA) (PI) (PI) (SG) (PI)
                 (PI) (SG) (SG) (DLTA) (DLTA) (PI) (PI) (SG) (DLTA)
                 (DLTA) (PI) (PI) (SG) (SG) (SG) (SG)
 The electronic state is 1-SG.
 Alpha  occ. eigenvalues --  -19.17291 -14.47959 -10.24118  -1.17400  -0.93178
 Alpha  occ. eigenvalues --   -0.60961  -0.54060  -0.50492  -0.50492  -0.28621
 Alpha  occ. eigenvalues --   -0.28621
 Alpha virt. eigenvalues --   -0.01105  -0.01105  -0.00861   0.01938   0.07376
 Alpha virt. eigenvalues --    0.07376   0.07432   0.10639   0.15002   0.15002
 Alpha virt. eigenvalues --    0.15745   0.18599   0.22926   0.25395   0.25395
 Alpha virt. eigenvalues --    0.29688   0.30125   0.30125   0.38414   0.40127
 Alpha virt. eigenvalues --    0.40127   0.43767   0.53218   0.53218   0.54500
 Alpha virt. eigenvalues --    0.57286   0.57286   0.64923   0.64923   0.65237
 Alpha virt. eigenvalues --    0.71660   0.85454   0.86706   0.86706   0.95247
 Alpha virt. eigenvalues --    0.95247   0.98138   1.02156   1.02156   1.08434
 Alpha virt. eigenvalues --    1.16316   1.21675   1.21675   1.42686   1.47812
 Alpha virt. eigenvalues --    1.47812   1.48804   1.53546   1.53546   1.62018
 Alpha virt. eigenvalues --    1.62018   1.80109   2.07142   2.07142   2.16835
 Alpha virt. eigenvalues --    2.26444   2.26444   2.49405   2.60915   2.60943
 Alpha virt. eigenvalues --    2.60943   2.67754   2.67754   2.73994   2.73994
 Alpha virt. eigenvalues --    3.03013   3.03013   3.06157   3.25478   3.25478
 Alpha virt. eigenvalues --    3.27660   3.35353   3.35353   3.47677   3.47677
 Alpha virt. eigenvalues --    3.52839   3.54154   3.54154   3.85967   3.85967
 Alpha virt. eigenvalues --    4.08585   4.09017   4.09017   4.24310   4.24310
 Alpha virt. eigenvalues --    4.47381   4.53490   4.74034   4.74034   5.03725
 Alpha virt. eigenvalues --    5.03725   5.23430   5.25532   5.25532   5.57248
 Alpha virt. eigenvalues --    5.57248   5.85975   6.00721   6.00721   6.05269
 Alpha virt. eigenvalues --    6.91232   6.91232   6.94339   6.94339   7.54957
 Alpha virt. eigenvalues --    7.54957   7.69113   8.33367   8.33367   8.77468
 Alpha virt. eigenvalues --    9.61674  10.04304  10.04304  10.85378  10.85378
 Alpha virt. eigenvalues --   11.35451  14.26827  14.26827  14.74944  14.74944
 Alpha virt. eigenvalues --   15.32035  25.81153  37.06432  50.52048
          Condensed to atoms (all electrons):
               1          2          3          4
     1  C    4.788465   0.401382   0.375211  -0.167087
     2  H    0.401382   0.539419  -0.129174  -0.008698
     3  N    0.375211  -0.129174   6.871894   0.134583
     4  O   -0.167087  -0.008698   0.134583   8.587789
 Mulliken charges:
               1
     1  C    0.602029
     2  H    0.197072
     3  N   -0.252514
     4  O   -0.546587
 Sum of Mulliken charges =  -0.00000
 Mulliken charges with hydrogens summed into heavy atoms:
               1
     1  C    0.799100
     3  N   -0.252514
     4  O   -0.546587
 Electronic spatial extent (au):  <R**2>=            122.8874
 Charge=             -0.0000 electrons
 Dipole moment (field-independent basis, Debye):
    X=              0.0000    Y=              0.0000    Z=             -3.2285  Tot=              3.2285
 Quadrupole moment (field-independent basis, Debye-Ang):
   XX=            -16.9294   YY=            -16.9294   ZZ=            -14.2177
   XY=              0.0000   XZ=              0.0000   YZ=              0.0000
 Traceless Quadrupole moment (field-independent basis, Debye-Ang):
   XX=             -0.9039   YY=             -0.9039   ZZ=              1.8078
   XY=              0.0000   XZ=              0.0000   YZ=              0.0000
 Octapole moment (field-independent basis, Debye-Ang**2):
  XXX=              0.0000  YYY=              0.0000  ZZZ=            -10.7532  XYY=              0.0000
  XXY=              0.0000  XXZ=              1.8631  XZZ=              0.0000  YZZ=              0.0000
  YYZ=              1.8631  XYZ=              0.0000
 Hexadecapole moment (field-independent basis, Debye-Ang**3):
 XXXX=            -16.1874 YYYY=            -16.1874 ZZZZ=            -94.1350 XXXY=              0.0000
 XXXZ=              0.0000 YYYX=              0.0000 YYYZ=              0.0000 ZZZX=              0.0000
 ZZZY=              0.0000 XXYY=             -5.3958 XXZZ=            -25.0299 YYZZ=            -25.0299
 XXYZ=              0.0000 YYXZ=              0.0000 ZZXY=              0.0000
 N-N= 6.065419484175D+01 E-N=-5.167888160822D+02  KE= 1.680002912000D+02
 Symmetry A1   KE= 1.527671620823D+02
 Symmetry A2   KE=-4.018282303117D-51
 Symmetry B1   KE= 7.616564558866D+00
 Symmetry B2   KE= 7.616564558866D+00
 No NMR shielding tensors so no spin-rotation constants.
 Leave Link  601 at Fri Jan 29 00:59:05 2021, MaxMem=  6291456000 cpu:               2.8 elap:               0.2
 (Enter /home/orgChemistry/bin/gaussian16-C.01/g16/l701.exe)
 ... and contract with generalized density number  0.
 Compute integral first derivatives.
 Leave Link  701 at Fri Jan 29 00:59:06 2021, MaxMem=  6291456000 cpu:               3.1 elap:               0.2
 (Enter /home/orgChemistry/bin/gaussian16-C.01/g16/l702.exe)
 L702 exits ... SP integral derivatives will be done elsewhere.
 Leave Link  702 at Fri Jan 29 00:59:06 2021, MaxMem=  6291456000 cpu:               0.4 elap:               0.1
 (Enter /home/orgChemistry/bin/gaussian16-C.01/g16/l703.exe)
 Integral derivatives from FoFJK, PRISM(SPDF).
 Compute integral first derivatives, UseDBF=F ICtDFT=           0.
 Calling FoFJK, ICntrl=      2127 FMM=F ISym2X=1 I1Cent= 0 IOpClX= 0 NMat=1 NMatS=1 NMatT=0.
 FoFJK:  IHMeth= 1 ICntrl=    2127 DoSepK=F KAlg= 0 I1Cent=           0 FoldK=F
 IRaf=         0 NMat=       1 IRICut=       1 DoRegI=T DoRafI=F ISym2E= 1 IDoP0=0 IntGTp=1.
 FoFCou: FMM=F IPFlag=           0 FMFlag=      100000 FMFlg1=         800
         NFxFlg=           0 DoJE=F BraDBF=F KetDBF=F FulRan=T
         wScrn=  0.000000 ICntrl=      2127 IOpCl=  0 I1Cent=           0 NGrid=           0
         NMat0=    1 NMatS0=      1 NMatT0=    0 NMatD0=    1 NMtDS0=    0 NMtDT0=    0
 Petite list used in FoFCou.
 Leave Link  703 at Fri Jan 29 00:59:07 2021, MaxMem=  6291456000 cpu:              16.0 elap:               0.7
 (Enter /home/orgChemistry/bin/gaussian16-C.01/g16/l716.exe)
 Dipole        = 0.00000000D+00 0.00000000D+00-1.27020206D+00
 ***** Axes restored to original set *****
 -------------------------------------------------------------------
 Center     Atomic                   Forces (Hartrees/Bohr)
 Number     Number              X              Y              Z
 -------------------------------------------------------------------
      1        6          -0.000000000   -0.000000000    0.000130501
      2        1          -0.000000000   -0.000000000    0.000005290
      3        7          -0.000000000   -0.000000000   -0.000103333
      4        8          -0.000000000   -0.000000000   -0.000032458
 -------------------------------------------------------------------
 Cartesian Forces:  Max     0.000130501 RMS     0.000048981
 Leave Link  716 at Fri Jan 29 00:59:08 2021, MaxMem=  6291456000 cpu:               0.7 elap:               0.1
 (Enter /home/orgChemistry/bin/gaussian16-C.01/g16/l103.exe)

 GradGradGradGradGradGradGradGradGradGradGradGradGradGradGradGradGradGrad
 Berny optimization.
 FormGI is forming the generalized inverse of G from B-inverse, IUseBI=4.
 Internal  Forces:  Max     0.000135791 RMS     0.000052808
 Search for a local minimum.
 Step number   1 out of a maximum of   20
 All quantities printed in internal units (Hartrees-Bohrs-Radians)
 RMS Force = .52808D-04 SwitMx=.10000D-02 MixMth= 2
 Mixed Optimization -- En-DIIS/RFO-DIIS
 Second derivative matrix not updated -- first step.
 The second derivative matrix:
                          R1        R2        R3        A1        A2
           R1           0.38563
           R2           0.00000   1.31300
           R3           0.00000   0.00000   1.05144
           A1           0.00000   0.00000   0.00000   0.04936
           A2           0.00000   0.00000   0.00000   0.00000   0.03949
           A3           0.00000   0.00000   0.00000   0.00000   0.00000
           A4           0.00000   0.00000   0.00000   0.00000   0.00000
                          A3        A4
           A3           0.04936
           A4           0.00000   0.03949
 ITU=  0
     Eigenvalues ---    0.03949   0.03949   0.04936   0.04936   0.38563
     Eigenvalues ---    1.05144   1.31300
 RFO step:  Lambda=-1.51180907D-08 EMin= 3.94885923D-02
 Linear search not attempted -- first point.
 Iteration  1 RMS(Cart)=  0.00004837 RMS(Int)=  0.00000000
 Iteration  2 RMS(Cart)=  0.00000000 RMS(Int)=  0.00000000
 ITry= 1 IFail=0 DXMaxC= 7.83D-05 DCOld= 1.00D+10 DXMaxT= 3.00D-01 DXLimC= 3.00D+00 Rises=F
 ClnCor:  largest displacement from symmetrization is 0.00D+00 for atom     0.
 Variable       Old X    -DE/DX   Delta X   Delta X   Delta X     New X
                                 (Linear)    (Quad)   (Total)
    R1        2.00254   0.00001   0.00000   0.00001   0.00001   2.00255
    R2        2.18214   0.00014   0.00000   0.00010   0.00010   2.18224
    R3        2.26647   0.00003   0.00000   0.00003   0.00003   2.26650
    A1        3.14159  -0.00000   0.00000  -0.00000   0.00000   3.14159
    A2        3.14159  -0.00000   0.00000   0.00000   0.00000   3.14159
    A3        3.14159   0.00000   0.00000   0.00000   0.00000   3.14159
    A4        3.14159  -0.00000   0.00000  -0.00000   0.00000   3.14159
         Item               Value     Threshold  Converged?
 Maximum Force            0.000136     0.000450     YES
 RMS     Force            0.000053     0.000300     YES
 Maximum Displacement     0.000078     0.001800     YES
 RMS     Displacement     0.000048     0.001200     YES
 Predicted change in Energy=-7.559045D-09
 Optimization completed.
    -- Stationary point found.
                           ----------------------------
                           !   Optimized Parameters   !
                           ! (Angstroms and Degrees)  !
 --------------------------                            --------------------------
 ! Name  Definition              Value          Derivative Info.                !
 --------------------------------------------------------------------------------
 ! R1    R(1,2)                  1.0597         -DE/DX =    0.0                 !
 ! R2    R(1,3)                  1.1547         -DE/DX =    0.0001              !
 ! R3    R(3,4)                  1.1994         -DE/DX =    0.0                 !
 ! A1    L(2,1,3,-1,-1)        180.0            -DE/DX =    0.0                 !
 ! A2    L(1,3,4,-1,-1)        180.0            -DE/DX =    0.0                 !
 ! A3    L(2,1,3,-2,-2)        180.0            -DE/DX =    0.0                 !
 ! A4    L(1,3,4,-2,-2)        180.0            -DE/DX =    0.0                 !
 --------------------------------------------------------------------------------
 Lowest energy point so far.  Saving SCF results.
 Largest change from initial coordinates is atom    0       0.000 Angstoms.
 GradGradGradGradGradGradGradGradGradGradGradGradGradGradGradGradGradGrad

 Leave Link  103 at Fri Jan 29 00:59:08 2021, MaxMem=  6291456000 cpu:               1.7 elap:               0.1
 (Enter /home/orgChemistry/bin/gaussian16-C.01/g16/l202.exe)
                          Input orientation:                          
 ---------------------------------------------------------------------
 Center     Atomic      Atomic             Coordinates (Angstroms)
 Number     Number       Type             X           Y           Z
 ---------------------------------------------------------------------
      1          6           0        0.000000    0.000000    1.226707
      2          1           0        0.000000    0.000000    2.286405
      3          7           0        0.000000    0.000000    0.071969
      4          8           0        0.000000    0.000000   -1.127394
 ---------------------------------------------------------------------
                    Distance matrix (angstroms):
                    1          2          3          4
     1  C    0.000000
     2  H    1.059699   0.000000
     3  N    1.154738   2.214437   0.000000
     4  O    2.354100   3.413799   1.199362   0.000000
 Stoichiometry    CHNO
 Framework group  C*V[C*(HCNO)]
 Deg. of freedom     3
 Full point group                 C*V     NOp   4
 RotChk:  IX=0 Diff= 0.00D+00
 Largest Abelian subgroup         C2V     NOp   4
 Largest concise Abelian subgroup C1      NOp   1
                         Standard orientation:                         
 ---------------------------------------------------------------------
 Center     Atomic      Atomic             Coordinates (Angstroms)
 Number     Number       Type             X           Y           Z
 ---------------------------------------------------------------------
      1          6           0        0.000000    0.000000   -1.175285
      2          1           0        0.000000    0.000000   -2.234984
      3          7           0        0.000000    0.000000   -0.020547
      4          8           0        0.000000    0.000000    1.178815
 ---------------------------------------------------------------------
 Rotational constants (GHZ):           0.0000000          11.5571753          11.5571753
 Leave Link  202 at Fri Jan 29 00:59:08 2021, MaxMem=  6291456000 cpu:               0.4 elap:               0.0
 (Enter /home/orgChemistry/bin/gaussian16-C.01/g16/l9999.exe)
 Unable to Open any file for archive entry.
 1\1\GINC-NODE2-064\FOpt\RB3LYP\6-311++G(3df,3pd)\C1H1N1O1\RUTHM\29-Jan
 -2021\0\\#p b3lyp/6-311++G(3df,3pd) opt freq=noraman\\title\\0,1\C,0.,
 0.,1.226706704\H,0.,0.,2.286405415\N,0.,0.,0.071968595\O,0.,0.,-1.1273
 93543\\Version=ES64L-G16RevC.01\State=1-SG\HF=-168.6415802\RMSD=3.145e
 -09\RMSF=4.898e-05\Dipole=0.,0.,1.2702021\Quadrupole=-0.6720232,-0.672
 0232,1.3440464,0.,0.,0.\PG=C*V [C*(H1C1N1O1)]\\@
 The archive entry for this job was punched.


 A true friend is someone who is there for
 you when he'd rather be anywhere else.
                               -- Len Wein
 Leave Link 9999 at Fri Jan 29 00:59:08 2021, MaxMem=  6291456000 cpu:               0.9 elap:               0.1
 Job cpu time:       0 days  0 hours  1 minutes  7.7 seconds.
 Elapsed time:       0 days  0 hours  0 minutes  3.6 seconds.
 File lengths (MBytes):  RWF=     19 Int=      0 D2E=      0 Chk=      3 Scr=      1
 Normal termination of Gaussian 16 at Fri Jan 29 00:59:08 2021.
 (Enter /home/orgChemistry/bin/gaussian16-C.01/g16/l1.exe)
 Link1:  Proceeding to internal job step number  2.
 ----------------------------------------------------------------------
 #P Geom=AllCheck Guess=TCheck SCRF=Check GenChk RB3LYP/6-311++G(3df,3p
 d) Freq
 ----------------------------------------------------------------------
 1/10=4,29=7,30=1,38=1,40=1/1,3;
 2/12=2,40=1/2;
 3/5=4,6=6,7=1616,11=2,14=-4,25=1,30=1,70=2,71=2,74=-5,116=1,140=1/1,2,3;
 4/5=101/1;
 5/5=2,38=6,98=1/2;
 8/6=4,10=90,11=11/1;
 11/6=1,8=1,9=11,15=111,16=1/1,2,10;
 10/6=1/2;
 6/7=2,8=2,9=2,10=2,28=1/1;
 7/8=1,10=1,25=1/1,2,3,16;
 1/10=4,30=1/3;
 99//99;
 Leave Link    1 at Fri Jan 29 00:59:08 2021, MaxMem=  6291456000 cpu:               0.6 elap:               0.0
 (Enter /home/orgChemistry/bin/gaussian16-C.01/g16/l101.exe)
 Structure from the checkpoint file:  "file_name.chk"
 -----
 title
 -----
 Charge =  0 Multiplicity = 1
 Redundant internal coordinates found in file.  (old form).
 C,0,0.,0.,1.226706704
 H,0,0.,0.,2.286405415
 N,0,0.,0.,0.071968595
 O,0,0.,0.,-1.127393543
 Recover connectivity data from disk.
 ITRead=  0  0  0  0
 MicOpt= -1 -1 -1 -1
 NAtoms=      4 NQM=        4 NQMF=       0 NMMI=      0 NMMIF=      0
                NMic=       0 NMicF=      0.
                    Isotopes and Nuclear Properties:
 (Nuclear quadrupole moments (NQMom) in fm**2, nuclear magnetic moments (NMagM)
  in nuclear magnetons)

  Atom         1           2           3           4
 IAtWgt=          12           1          14          16
 AtmWgt=  12.0000000   1.0078250  14.0030740  15.9949146
 NucSpn=           0           1           2           0
 AtZEff=   3.6000000   1.0000000   4.5500000   5.6000000
 NQMom=    0.0000000   0.0000000   2.0440000   0.0000000
 NMagM=    0.0000000   2.7928460   0.4037610   0.0000000
 AtZNuc=   6.0000000   1.0000000   7.0000000   8.0000000
 Leave Link  101 at Fri Jan 29 00:59:09 2021, MaxMem=  6291456000 cpu:               8.5 elap:               0.4
 (Enter /home/orgChemistry/bin/gaussian16-C.01/g16/l103.exe)

 GradGradGradGradGradGradGradGradGradGradGradGradGradGradGradGradGradGrad
 Berny optimization.
 Initialization pass.
                           ----------------------------
                           !    Initial Parameters    !
                           ! (Angstroms and Degrees)  !
 --------------------------                            --------------------------
 ! Name  Definition              Value          Derivative Info.                !
 --------------------------------------------------------------------------------
 ! R1    R(1,2)                  1.0597         calculate D2E/DX2 analytically  !
 ! R2    R(1,3)                  1.1547         calculate D2E/DX2 analytically  !
 ! R3    R(3,4)                  1.1994         calculate D2E/DX2 analytically  !
 ! A1    L(2,1,3,-1,-1)        180.0            calculate D2E/DX2 analytically  !
 ! A2    L(1,3,4,-1,-1)        180.0            calculate D2E/DX2 analytically  !
 ! A3    L(2,1,3,-2,-2)        180.0            calculate D2E/DX2 analytically  !
 ! A4    L(1,3,4,-2,-2)        180.0            calculate D2E/DX2 analytically  !
 --------------------------------------------------------------------------------
 Trust Radius=3.00D-01 FncErr=1.00D-07 GrdErr=1.00D-07 EigMax=2.50D+02 EigMin=1.00D-04
 Number of steps in this run=      2 maximum allowed number of steps=      2.
 GradGradGradGradGradGradGradGradGradGradGradGradGradGradGradGradGradGrad

 Leave Link  103 at Fri Jan 29 00:59:09 2021, MaxMem=  6291456000 cpu:               0.3 elap:               0.0
 (Enter /home/orgChemistry/bin/gaussian16-C.01/g16/l202.exe)
                          Input orientation:                          
 ---------------------------------------------------------------------
 Center     Atomic      Atomic             Coordinates (Angstroms)
 Number     Number       Type             X           Y           Z
 ---------------------------------------------------------------------
      1          6           0        0.000000    0.000000    1.226707
      2          1           0        0.000000    0.000000    2.286405
      3          7           0        0.000000    0.000000    0.071969
      4          8           0        0.000000    0.000000   -1.127394
 ---------------------------------------------------------------------
                    Distance matrix (angstroms):
                    1          2          3          4
     1  C    0.000000
     2  H    1.059699   0.000000
     3  N    1.154738   2.214437   0.000000
     4  O    2.354100   3.413799   1.199362   0.000000
 Stoichiometry    CHNO
 Framework group  C*V[C*(HCNO)]
 Deg. of freedom     3
 Full point group                 C*V     NOp   4
 RotChk:  IX=0 Diff= 0.00D+00
 Largest Abelian subgroup         C2V     NOp   4
 Largest concise Abelian subgroup C1      NOp   1
                         Standard orientation:                         
 ---------------------------------------------------------------------
 Center     Atomic      Atomic             Coordinates (Angstroms)
 Number     Number       Type             X           Y           Z
 ---------------------------------------------------------------------
      1          6           0        0.000000    0.000000   -1.175285
      2          1           0        0.000000    0.000000   -2.234984
      3          7           0        0.000000    0.000000   -0.020547
      4          8           0        0.000000    0.000000    1.178815
 ---------------------------------------------------------------------
 Rotational constants (GHZ):           0.0000000          11.5571753          11.5571753
 Leave Link  202 at Fri Jan 29 00:59:09 2021, MaxMem=  6291456000 cpu:               0.5 elap:               0.0
 (Enter /home/orgChemistry/bin/gaussian16-C.01/g16/l301.exe)
 Standard basis: 6-311++G(3df,3pd) (5D, 7F)
 Ernie: Thresh=  0.10000D-02 Tol=  0.10000D-05 Strict=F.
 There are    73 symmetry adapted cartesian basis functions of A1  symmetry.
 There are    13 symmetry adapted cartesian basis functions of A2  symmetry.
 There are    34 symmetry adapted cartesian basis functions of B1  symmetry.
 There are    34 symmetry adapted cartesian basis functions of B2  symmetry.
 There are    60 symmetry adapted basis functions of A1  symmetry.
 There are    13 symmetry adapted basis functions of A2  symmetry.
 There are    31 symmetry adapted basis functions of B1  symmetry.
 There are    31 symmetry adapted basis functions of B2  symmetry.
   135 basis functions,   195 primitive gaussians,   154 cartesian basis functions
    11 alpha electrons       11 beta electrons
       nuclear repulsion energy        60.6541948418 Hartrees.
 IExCor=  402 DFT=T Ex+Corr=B3LYP ExCW=0 ScaHFX=  0.200000
 ScaDFX=  0.800000  0.720000  1.000000  0.810000 ScalE2=  1.000000  1.000000
 IRadAn=      5 IRanWt=     -1 IRanGd=            0 ICorTp=0 IEmpDi=  4
 NAtoms=    4 NActive=    4 NUniq=    4 SFac= 1.00D+00 NAtFMM=   60 NAOKFM=F Big=F
 Integral buffers will be    131072 words long.
 Raffenetti 2 integral format.
 Two-electron integral symmetry is turned on.
 Leave Link  301 at Fri Jan 29 00:59:09 2021, MaxMem=  6291456000 cpu:               1.3 elap:               0.1
 (Enter /home/orgChemistry/bin/gaussian16-C.01/g16/l302.exe)
 NPDir=0 NMtPBC=     1 NCelOv=     1 NCel=       1 NClECP=     1 NCelD=      1
         NCelK=      1 NCelE2=     1 NClLst=     1 CellRange=     0.0.
 One-electron integrals computed using PRISM.
 One-electron integral symmetry used in STVInt
 NBasis=   135 RedAO= T EigKep=  1.32D-04  NBF=    60    13    31    31
 NBsUse=   135 1.00D-06 EigRej= -1.00D+00 NBFU=    60    13    31    31
 Precomputing XC quadrature grid using
 IXCGrd= 4 IRadAn=           5 IRanWt=          -1 IRanGd=           0 AccXCQ= 0.00D+00.
 Generated NRdTot=       0 NPtTot=           0 NUsed=           0 NTot=          32
 NSgBfM=   154   154   154   154   154 MxSgAt=     4 MxSgA2=     4.
 Leave Link  302 at Fri Jan 29 00:59:09 2021, MaxMem=  6291456000 cpu:               7.9 elap:               0.4
 (Enter /home/orgChemistry/bin/gaussian16-C.01/g16/l303.exe)
 DipDrv:  MaxL=1.
 Leave Link  303 at Fri Jan 29 00:59:09 2021, MaxMem=  6291456000 cpu:               1.2 elap:               0.1
 (Enter /home/orgChemistry/bin/gaussian16-C.01/g16/l401.exe)
 Initial guess from the checkpoint file:  "file_name.chk"
 B after Tr=     0.000000    0.000000    0.000000
         Rot=    1.000000    0.000000    0.000000    0.000000 Ang=   0.00 deg.
 Guess basis will be translated and rotated to current coordinates.
 JPrj=2 DoOrth=T DoCkMO=T.
 Initial guess orbital symmetries:
       Occupied  (SG) (SG) (SG) (SG) (SG) (SG) (SG) (PI) (PI) (PI)
                 (PI)
       Virtual   (PI) (PI) (SG) (SG) (PI) (PI) (SG) (SG) (PI) (PI)
                 (SG) (SG) (SG) (PI) (PI) (SG) (DLTA) (DLTA) (SG)
                 (PI) (PI) (SG) (PI) (PI) (SG) (DLTA) (DLTA) (PI)
                 (PI) (SG) (SG) (SG) (PI) (PI) (DLTA) (DLTA) (SG)
                 (PI) (PI) (SG) (SG) (PI) (PI) (SG) (PI) (PI) (SG)
                 (DLTA) (DLTA) (PI) (PI) (SG) (PI) (PI) (SG) (DLTA)
                 (DLTA) (SG) (SG) (PI) (PI) (DLTA) (DLTA) (PHI)
                 (PHI) (PI) (PI) (SG) (DLTA) (DLTA) (SG) (PI) (PI)
                 (DLTA) (DLTA) (SG) (PHI) (PHI) (PI) (PI) (SG)
                 (PI) (PI) (DLTA) (DLTA) (SG) (SG) (PI) (PI) (PHI)
                 (PHI) (SG) (PI) (PI) (DLTA) (DLTA) (SG) (PI) (PI)
                 (SG) (PI) (PI) (DLTA) (DLTA) (PI) (PI) (SG) (PI)
                 (PI) (SG) (SG) (DLTA) (DLTA) (PI) (PI) (SG) (DLTA)
                 (DLTA) (PI) (PI) (SG) (SG) (SG) (SG)
 The electronic state of the initial guess is 1-SG.
 Leave Link  401 at Fri Jan 29 00:59:09 2021, MaxMem=  6291456000 cpu:               2.5 elap:               0.1
 (Enter /home/orgChemistry/bin/gaussian16-C.01/g16/l502.exe)
 Keep R1 ints in memory in symmetry-blocked form, NReq=65693143.
 FoFCou: FMM=F IPFlag=           0 FMFlag=           0 FMFlg1=           0
         NFxFlg=           0 DoJE=F BraDBF=F KetDBF=F FulRan=T
         wScrn=  0.000000 ICntrl=       600 IOpCl=  0 I1Cent=           0 NGrid=           0
         NMat0=    1 NMatS0=   9180 NMatT0=    0 NMatD0=    1 NMtDS0=    0 NMtDT0=    0
 Petite list used in FoFCou.
 Closed shell SCF:
 Using DIIS extrapolation, IDIIS=  1040.
 NGot=  6291456000 LenX=  6280495259 LenY=  6280471102
 Requested convergence on RMS density matrix=1.00D-08 within 128 cycles.
 Requested convergence on MAX density matrix=1.00D-06.
 Requested convergence on             energy=1.00D-06.
 No special actions if energy rises.

 Cycle   1  Pass 1  IDiag  1:
 E= -168.641580215996    
 DIIS: error= 6.78D-09 at cycle   1 NSaved=   1.
 NSaved= 1 IEnMin= 1 EnMin= -168.641580215996     IErMin= 1 ErrMin= 6.78D-09
 ErrMax= 6.78D-09  0.00D+00 EMaxC= 1.00D-01 BMatC= 3.19D-15 BMatP= 3.19D-15
 IDIUse=1 WtCom= 1.00D+00 WtEn= 0.00D+00
 Coeff-Com:  0.100D+01
 Coeff:      0.100D+01
 Gap=     0.275 Goal=   None    Shift=    0.000
 RMSDP=8.95D-10 MaxDP=1.75D-08              OVMax= 7.34D-08

 SCF Done:  E(RB3LYP) =  -168.641580216     A.U. after    1 cycles
            NFock=  1  Conv=0.90D-09     -V/T= 2.0038
 KE= 1.680002915144D+02 PE=-5.167888163967D+02 EE= 1.194927498245D+02
 Leave Link  502 at Fri Jan 29 00:59:10 2021, MaxMem=  6291456000 cpu:              13.1 elap:               0.6
 (Enter /home/orgChemistry/bin/gaussian16-C.01/g16/l801.exe)
 DoSCS=F DFT=T ScalE2(SS,OS)=  1.000000  1.000000
 Range of M.O.s used for correlation:     1   135
 NBasis=   135 NAE=    11 NBE=    11 NFC=     0 NFV=     0
 NROrb=    135 NOA=    11 NOB=    11 NVA=   124 NVB=   124

 **** Warning!!: The largest alpha MO coefficient is  0.28771106D+02

 Leave Link  801 at Fri Jan 29 00:59:10 2021, MaxMem=  6291456000 cpu:               0.8 elap:               0.1
 (Enter /home/orgChemistry/bin/gaussian16-C.01/g16/l1101.exe)
 Using compressed storage, NAtomX=     4.
 Will process      5 centers per pass.
 Leave Link 1101 at Fri Jan 29 00:59:11 2021, MaxMem=  6291456000 cpu:               3.0 elap:               0.2
 (Enter /home/orgChemistry/bin/gaussian16-C.01/g16/l1102.exe)
 Symmetrizing basis deriv contribution to polar:
 IMax=3 JMax=2 DiffMx= 0.00D+00
 Leave Link 1102 at Fri Jan 29 00:59:11 2021, MaxMem=  6291456000 cpu:               0.9 elap:               0.1
 (Enter /home/orgChemistry/bin/gaussian16-C.01/g16/l1110.exe)
 Forming Gx(P) for the SCF density, NAtomX=     4.
 Integral derivatives from FoFJK, PRISM(SPDF).
 Do as many integral derivatives as possible in FoFJK.
 G2DrvN: MDV=    6291455468.
 G2DrvN: will do     5 centers at a time, making    1 passes.
 Calling FoFCou, ICntrl=  3107 FMM=F I1Cent=   0 AccDes= 0.00D+00.
 FoFJK:  IHMeth= 1 ICntrl=    3107 DoSepK=F KAlg= 0 I1Cent=           0 FoldK=F
 IRaf=         0 NMat=       1 IRICut=       1 DoRegI=T DoRafI=F ISym2E= 1 IDoP0=0 IntGTp=1.
 FoFCou: FMM=F IPFlag=           0 FMFlag=      100000 FMFlg1=           0
         NFxFlg=           0 DoJE=F BraDBF=F KetDBF=F FulRan=T
         wScrn=  0.000000 ICntrl=      3107 IOpCl=  0 I1Cent=           0 NGrid=           0
         NMat0=    1 NMatS0=      1 NMatT0=    0 NMatD0=    1 NMtDS0=    0 NMtDT0=    0
 Petite list used in FoFCou.
 End of G2Drv F.D. properties file   721 does not exist.
 End of G2Drv F.D. properties file   722 does not exist.
 End of G2Drv F.D. properties file   788 does not exist.
 Leave Link 1110 at Fri Jan 29 00:59:12 2021, MaxMem=  6291456000 cpu:              22.6 elap:               1.0
 (Enter /home/orgChemistry/bin/gaussian16-C.01/g16/l1002.exe)
 Minotr:  Closed shell wavefunction.
          IDoAtm=1111
          Direct CPHF calculation.
          Differentiating once with respect to electric field.
                with respect to dipole field.
          Differentiating once with respect to nuclear coordinates.
          Using symmetry in CPHF.
          Requested convergence is 1.0D-08 RMS, and 1.0D-07 maximum.
          Secondary convergence is 1.0D-12 RMS, and 1.0D-12 maximum.
          NewPWx=T KeepS1=F KeepF1=F KeepIn=T MapXYZ=F SortEE=F KeepMc=T.
         1221 words used for storage of precomputed grid.
 Keep R1 ints in memory in symmetry-blocked form, NReq=65612983.
 FoFCou: FMM=F IPFlag=           0 FMFlag=           0 FMFlg1=           0
         NFxFlg=           0 DoJE=F BraDBF=F KetDBF=F FulRan=T
         wScrn=  0.000000 ICntrl=       600 IOpCl=  0 I1Cent=           0 NGrid=           0
         NMat0=    1 NMatS0=   9180 NMatT0=    0 NMatD0=    1 NMtDS0=    0 NMtDT0=    0
 Petite list used in FoFCou.
          MDV=    6291456000 using IRadAn=       1.
          Solving linear equations simultaneously, MaxMat=       0.
          There are    15 degrees of freedom in the 1st order CPHF.  IDoFFX=6 NUNeed=     3.
     12 vectors produced by pass  0 Test12= 9.09D-15 6.67D-09 XBig12= 7.49D+01 5.64D+00.
 AX will form    12 AO Fock derivatives at one time.
     12 vectors produced by pass  1 Test12= 9.09D-15 6.67D-09 XBig12= 5.59D+01 2.30D+00.
     12 vectors produced by pass  2 Test12= 9.09D-15 6.67D-09 XBig12= 8.45D-01 2.29D-01.
     12 vectors produced by pass  3 Test12= 9.09D-15 6.67D-09 XBig12= 2.26D-03 1.61D-02.
     12 vectors produced by pass  4 Test12= 9.09D-15 6.67D-09 XBig12= 8.93D-06 5.67D-04.
     12 vectors produced by pass  5 Test12= 9.09D-15 6.67D-09 XBig12= 1.98D-08 3.85D-05.
      5 vectors produced by pass  6 Test12= 9.09D-15 6.67D-09 XBig12= 2.29D-11 1.06D-06.
      1 vectors produced by pass  7 Test12= 9.09D-15 6.67D-09 XBig12= 3.80D-14 4.19D-08.
 InvSVY:  IOpt=1 It=  1 EMax= 6.66D-16
 Solved reduced A of dimension    78 with    12 vectors.
 FullF1:  Do perturbations      1 to       3.
 Isotropic polarizability for W=    0.000000       25.21 Bohr**3.
 End of Minotr F.D. properties file   721 does not exist.
 End of Minotr F.D. properties file   722 does not exist.
 End of Minotr F.D. properties file   788 does not exist.
 Leave Link 1002 at Fri Jan 29 00:59:15 2021, MaxMem=  6291456000 cpu:              44.7 elap:               2.0
 (Enter /home/orgChemistry/bin/gaussian16-C.01/g16/l601.exe)
 Copying SCF densities to generalized density rwf, IOpCl= 0 IROHF=0.

 **********************************************************************

            Population analysis using the SCF Density.

 **********************************************************************

 Orbital symmetries:
       Occupied  (SG) (SG) (SG) (SG) (SG) (SG) (SG) (PI) (PI) (PI)
                 (PI)
       Virtual   (PI) (PI) (SG) (SG) (PI) (PI) (SG) (SG) (PI) (PI)
                 (SG) (SG) (SG) (PI) (PI) (SG) (DLTA) (DLTA) (SG)
                 (PI) (PI) (SG) (PI) (PI) (SG) (DLTA) (DLTA) (PI)
                 (PI) (SG) (SG) (SG) (PI) (PI) (DLTA) (DLTA) (SG)
                 (PI) (PI) (SG) (SG) (PI) (PI) (SG) (PI) (PI) (SG)
                 (DLTA) (DLTA) (PI) (PI) (SG) (PI) (PI) (SG) (DLTA)
                 (DLTA) (SG) (SG) (PI) (PI) (DLTA) (DLTA) (PHI)
                 (PHI) (PI) (PI) (SG) (DLTA) (DLTA) (SG) (PI) (PI)
                 (DLTA) (DLTA) (SG) (PHI) (PHI) (PI) (PI) (SG)
                 (PI) (PI) (DLTA) (DLTA) (SG) (SG) (PI) (PI) (PHI)
                 (PHI) (SG) (PI) (PI) (DLTA) (DLTA) (SG) (PI) (PI)
                 (SG) (PI) (PI) (DLTA) (DLTA) (PI) (PI) (SG) (PI)
                 (PI) (SG) (SG) (DLTA) (DLTA) (PI) (PI) (SG) (DLTA)
                 (DLTA) (PI) (PI) (SG) (SG) (SG) (SG)
 The electronic state is 1-SG.
 Alpha  occ. eigenvalues --  -19.17291 -14.47959 -10.24118  -1.17400  -0.93178
 Alpha  occ. eigenvalues --   -0.60961  -0.54060  -0.50492  -0.50492  -0.28621
 Alpha  occ. eigenvalues --   -0.28621
 Alpha virt. eigenvalues --   -0.01105  -0.01105  -0.00861   0.01938   0.07376
 Alpha virt. eigenvalues --    0.07376   0.07432   0.10639   0.15002   0.15002
 Alpha virt. eigenvalues --    0.15745   0.18599   0.22926   0.25395   0.25395
 Alpha virt. eigenvalues --    0.29688   0.30125   0.30125   0.38414   0.40127
 Alpha virt. eigenvalues --    0.40127   0.43767   0.53218   0.53218   0.54500
 Alpha virt. eigenvalues --    0.57286   0.57286   0.64923   0.64923   0.65237
 Alpha virt. eigenvalues --    0.71660   0.85454   0.86706   0.86706   0.95247
 Alpha virt. eigenvalues --    0.95247   0.98138   1.02156   1.02156   1.08434
 Alpha virt. eigenvalues --    1.16316   1.21675   1.21675   1.42686   1.47812
 Alpha virt. eigenvalues --    1.47812   1.48804   1.53546   1.53546   1.62018
 Alpha virt. eigenvalues --    1.62018   1.80109   2.07142   2.07142   2.16835
 Alpha virt. eigenvalues --    2.26444   2.26444   2.49405   2.60915   2.60943
 Alpha virt. eigenvalues --    2.60943   2.67754   2.67754   2.73994   2.73994
 Alpha virt. eigenvalues --    3.03013   3.03013   3.06157   3.25478   3.25478
 Alpha virt. eigenvalues --    3.27660   3.35353   3.35353   3.47677   3.47677
 Alpha virt. eigenvalues --    3.52839   3.54154   3.54154   3.85967   3.85967
 Alpha virt. eigenvalues --    4.08585   4.09017   4.09017   4.24310   4.24310
 Alpha virt. eigenvalues --    4.47381   4.53490   4.74034   4.74034   5.03725
 Alpha virt. eigenvalues --    5.03725   5.23430   5.25532   5.25532   5.57248
 Alpha virt. eigenvalues --    5.57248   5.85975   6.00721   6.00721   6.05269
 Alpha virt. eigenvalues --    6.91232   6.91232   6.94339   6.94339   7.54957
 Alpha virt. eigenvalues --    7.54957   7.69113   8.33367   8.33367   8.77468
 Alpha virt. eigenvalues --    9.61674  10.04304  10.04304  10.85378  10.85378
 Alpha virt. eigenvalues --   11.35451  14.26827  14.26827  14.74944  14.74944
 Alpha virt. eigenvalues --   15.32035  25.81153  37.06432  50.52048
          Condensed to atoms (all electrons):
               1          2          3          4
     1  C    4.788465   0.401382   0.375211  -0.167087
     2  H    0.401382   0.539419  -0.129174  -0.008698
     3  N    0.375211  -0.129174   6.871894   0.134583
     4  O   -0.167087  -0.008698   0.134583   8.587790
 Mulliken charges:
               1
     1  C    0.602029
     2  H    0.197072
     3  N   -0.252514
     4  O   -0.546587
 Sum of Mulliken charges =  -0.00000
 Mulliken charges with hydrogens summed into heavy atoms:
               1
     1  C    0.799101
     3  N   -0.252514
     4  O   -0.546587
 APT charges:
               1
     1  C   -0.498818
     2  H    0.308882
     3  N    0.903686
     4  O   -0.713751
 Sum of APT charges =  -0.00000
 APT charges with hydrogens summed into heavy atoms:
               1
     1  C   -0.189936
     3  N    0.903686
     4  O   -0.713751
 Electronic spatial extent (au):  <R**2>=            122.8874
 Charge=             -0.0000 electrons
 Dipole moment (field-independent basis, Debye):
    X=              0.0000    Y=              0.0000    Z=             -3.2285  Tot=              3.2285
 Quadrupole moment (field-independent basis, Debye-Ang):
   XX=            -16.9294   YY=            -16.9294   ZZ=            -14.2177
   XY=              0.0000   XZ=              0.0000   YZ=              0.0000
 Traceless Quadrupole moment (field-independent basis, Debye-Ang):
   XX=             -0.9039   YY=             -0.9039   ZZ=              1.8078
   XY=              0.0000   XZ=              0.0000   YZ=              0.0000
 Octapole moment (field-independent basis, Debye-Ang**2):
  XXX=              0.0000  YYY=              0.0000  ZZZ=            -10.7532  XYY=              0.0000
  XXY=              0.0000  XXZ=              1.8631  XZZ=              0.0000  YZZ=              0.0000
  YYZ=              1.8631  XYZ=              0.0000
 Hexadecapole moment (field-independent basis, Debye-Ang**3):
 XXXX=            -16.1874 YYYY=            -16.1874 ZZZZ=            -94.1350 XXXY=              0.0000
 XXXZ=              0.0000 YYYX=              0.0000 YYYZ=              0.0000 ZZZX=              0.0000
 ZZZY=              0.0000 XXYY=             -5.3958 XXZZ=            -25.0299 YYZZ=            -25.0299
 XXYZ=              0.0000 YYXZ=              0.0000 ZZXY=              0.0000
 N-N= 6.065419484175D+01 E-N=-5.167888168077D+02  KE= 1.680002915144D+02
 Symmetry A1   KE= 1.527671620318D+02
 Symmetry A2   KE= 5.790693926880D-51
 Symmetry B1   KE= 7.616564741317D+00
 Symmetry B2   KE= 7.616564741317D+00
  Exact polarizability:      16.307       0.000      16.307       0.000       0.000      43.005
 Approx polarizability:      21.238      -0.000      21.238      -0.000      -0.000      93.075
 No NMR shielding tensors so no spin-rotation constants.
 Leave Link  601 at Fri Jan 29 00:59:15 2021, MaxMem=  6291456000 cpu:               3.0 elap:               0.2
 (Enter /home/orgChemistry/bin/gaussian16-C.01/g16/l701.exe)
 ... and contract with generalized density number  0.
 Compute integral second derivatives.
 Leave Link  701 at Fri Jan 29 00:59:15 2021, MaxMem=  6291456000 cpu:               9.4 elap:               0.5
 (Enter /home/orgChemistry/bin/gaussian16-C.01/g16/l702.exe)
 L702 exits ... SP integral derivatives will be done elsewhere.
 Leave Link  702 at Fri Jan 29 00:59:15 2021, MaxMem=  6291456000 cpu:               0.6 elap:               0.1
 (Enter /home/orgChemistry/bin/gaussian16-C.01/g16/l703.exe)
 Integral derivatives from FoFJK, PRISM(SPDF).
 Compute integral second derivatives, UseDBF=F ICtDFT=           0.
 Calling FoFJK, ICntrl=    100127 FMM=F ISym2X=1 I1Cent= 0 IOpClX= 0 NMat=1 NMatS=1 NMatT=0.
 FoFJK:  IHMeth= 1 ICntrl=  100127 DoSepK=F KAlg= 0 I1Cent=           0 FoldK=F
 IRaf=         0 NMat=       1 IRICut=       1 DoRegI=T DoRafI=F ISym2E= 1 IDoP0=0 IntGTp=1.
 FoFCou: FMM=F IPFlag=           0 FMFlag=      100000 FMFlg1=         800
         NFxFlg=           0 DoJE=F BraDBF=F KetDBF=F FulRan=T
         wScrn=  0.000000 ICntrl=    100127 IOpCl=  0 I1Cent=           0 NGrid=           0
         NMat0=    1 NMatS0=      1 NMatT0=    0 NMatD0=    1 NMtDS0=    0 NMtDT0=    0
 Petite list used in FoFCou.
 Leave Link  703 at Fri Jan 29 00:59:18 2021, MaxMem=  6291456000 cpu:              63.0 elap:               2.7
 (Enter /home/orgChemistry/bin/gaussian16-C.01/g16/l716.exe)
 Dipole        = 0.00000000D+00 0.00000000D+00-1.27020305D+00
 Polarizability= 1.63070055D+01 0.00000000D+00 1.63070055D+01
                 0.00000000D+00 0.00000000D+00 4.30049784D+01
 Full mass-weighted force constant matrix:
 Low frequencies ---   -7.7413   -7.7413   -0.0013    0.0003    0.0007  244.9138
 Low frequencies ---  244.9138  565.8837  565.8837
 Diagonal vibrational polarizability:
       32.3285926      32.3285926       4.9645817
 Harmonic frequencies (cm**-1), IR intensities (KM/Mole), Raman scattering
 activities (A**4/AMU), depolarization ratios for plane and unpolarized
 incident light, reduced masses (AMU), force constants (mDyne/A),
 and normal coordinates:
                      1                      2                      3
                     PI                     PI                     PI
 Frequencies --    244.9138               244.9138               565.8837
 Red. masses --      1.3867                 1.3867                 4.7127
 Frc consts  --      0.0490                 0.0490                 0.8892
 IR Inten    --     71.6088                71.6088                 2.3962
  Atom  AN      X      Y      Z        X      Y      Z        X      Y      Z
     1   6    -0.17  -0.00  -0.00     0.00  -0.17  -0.00    -0.17  -0.00  -0.00
     2   1     0.98   0.00  -0.00    -0.00   0.98  -0.00    -0.85   0.00  -0.00
     3   7     0.08   0.00  -0.00    -0.00   0.08   0.00     0.45  -0.00  -0.00
     4   8    -0.01  -0.00   0.00     0.00  -0.01   0.00    -0.22   0.00   0.00
                      4                      5                      6
                     PI                     SG                     SG
 Frequencies --    565.8837              1291.9450              2323.4573
 Red. masses --      4.7127                 9.4051                 6.3736
 Frc consts  --      0.8892                 9.2491                20.2724
 IR Inten    --      2.3962               139.9015               425.5998
  Atom  AN      X      Y      Z        X      Y      Z        X      Y      Z
     1   6     0.00  -0.17   0.00    -0.00   0.00  -0.50     0.00   0.00  -0.38
     2   1    -0.00  -0.85   0.00    -0.00  -0.00  -0.61     0.00  -0.00  -0.75
     3   7     0.00   0.45  -0.00    -0.00   0.00  -0.20     0.00   0.00   0.52
     4   8    -0.00  -0.22  -0.00    -0.00  -0.00   0.59     0.00  -0.00  -0.13
                      7
                     SG
 Frequencies --   3499.7796
 Red. masses --      1.1720
 Frc consts  --      8.4576
 IR Inten    --    267.3265
  Atom  AN      X      Y      Z
     1   6     0.00   0.00  -0.12
     2   1     0.00   0.00   0.99
     3   7     0.00   0.00   0.03
     4   8     0.00   0.00  -0.00

 -------------------
 - Thermochemistry -
 -------------------
 Temperature   298.150 Kelvin.  Pressure   1.00000 Atm.
 Atom     1 has atomic number  6 and mass  12.00000
 Atom     2 has atomic number  1 and mass   1.00783
 Atom     3 has atomic number  7 and mass  14.00307
 Atom     4 has atomic number  8 and mass  15.99491
 Molecular mass:    43.00581 amu.
 Principal axes and moments of inertia in atomic units:
                           1         2         3
     Eigenvalues --     0.00000 156.15764 156.15764
           X            0.00000  -0.00000   1.00000
           Y            0.00000   1.00000   0.00000
           Z            1.00000   0.00000   0.00000
 This molecule is a prolate symmetric top.
 Rotational symmetry number  1.
 Rotational temperature (Kelvin)      0.55466
 Rotational constant (GHZ):          11.557175
 Zero-point vibrational energy      52257.5 (Joules/Mol)
                                   12.48985 (Kcal/Mol)
 Warning -- explicit consideration of   4 degrees of freedom as
           vibrations may cause significant error
 Vibrational temperatures:    352.38   352.38   814.18   814.18  1858.82
          (Kelvin)           3342.94  5035.40
 
 Zero-point correction=                           0.019904 (Hartree/Particle)
 Thermal correction to Energy=                    0.023623
 Thermal correction to Enthalpy=                  0.024567
 Thermal correction to Gibbs Free Energy=        -0.002169
 Sum of electronic and zero-point Energies=           -168.621676
 Sum of electronic and thermal Energies=              -168.617957
 Sum of electronic and thermal Enthalpies=            -168.617013
 Sum of electronic and thermal Free Energies=         -168.643749
 
                     E (Thermal)             CV                S
                      KCal/Mol        Cal/Mol-Kelvin    Cal/Mol-Kelvin
 Total                   14.824             10.876             56.270
 Electronic               0.000              0.000              0.000
 Translational            0.889              2.981             37.203
 Rotational               0.592              1.987             14.481
 Vibrational             13.342              5.908              4.587
 Vibration     1          0.660              1.771              1.767
 Vibration     2          0.660              1.771              1.767
 Vibration     3          0.922              1.105              0.512
 Vibration     4          0.922              1.105              0.512
                       Q            Log10(Q)             Ln(Q)
 Total Bot       0.994453D+01          0.997584          2.297023
 Total V=0       0.142137D+11         10.152708         23.377474
 Vib (Bot)       0.166890D-08         -8.777571        -20.211104
 Vib (Bot)    1  0.798803D+00         -0.097561         -0.224641
 Vib (Bot)    2  0.798803D+00         -0.097561         -0.224641
 Vib (Bot)    3  0.273078D+00         -0.563713         -1.297998
 Vib (Bot)    4  0.273078D+00         -0.563713         -1.297998
 Vib (V=0)       0.238535D+01          0.377553          0.869348
 Vib (V=0)    1  0.144238D+01          0.159081          0.366297
 Vib (V=0)    2  0.144238D+01          0.159081          0.366297
 Vib (V=0)    3  0.106971D+01          0.029267          0.067389
 Vib (V=0)    4  0.106971D+01          0.029267          0.067389
 Electronic      0.100000D+01          0.000000          0.000000
 Translational   0.110852D+08          7.044745         16.221124
 Rotational      0.537539D+03          2.730410          6.287002
 
                                                                title
                                                             IR Spectrum
 
     3                                          2                                     1                                              
     5                                          3                                     2                         5           2        
     0                                          2                                     9                         6           4        
     0                                          3                                     2                         6           5        
 
     X                                          X                                     X                         X           X        
     X                                          X                                     X                                     X        
     X                                          X                                     X                                     X        
     X                                          X                                     X                                     X        
     X                                          X                                     X                                     X        
     X                                          X                                     X                                     X        
     X                                          X                                     X                                     X        
     X                                          X                                                                                    
     X                                          X                                                                                    
     X                                          X                                                                                    
     X                                          X                                                                                    
     X                                          X                                                                                    
     X                                          X                                                                                    
                                                X                                                                                    
                                                X                                                                                    
                                                X                                                                                    
                                                X                                                                                    
                                                X                                                                                    
                                                X                                                                                    
                                                X                                                                                    
 
 ***** Axes restored to original set *****
 -------------------------------------------------------------------
 Center     Atomic                   Forces (Hartrees/Bohr)
 Number     Number              X              Y              Z
 -------------------------------------------------------------------
      1        6          -0.000000000   -0.000000000    0.000130425
      2        1          -0.000000000   -0.000000000    0.000005277
      3        7          -0.000000000   -0.000000000   -0.000103227
      4        8          -0.000000000   -0.000000000   -0.000032475
 -------------------------------------------------------------------
 Cartesian Forces:  Max     0.000130425 RMS     0.000048946
 Force constants in Cartesian coordinates: 
                1             2             3             4             5 
      1  0.167295D-01
      2  0.000000D+00  0.167295D-01
      3  0.000000D+00  0.000000D+00  0.167648D+01
      4  0.116985D-02  0.000000D+00  0.000000D+00  0.348236D-02
      5  0.000000D+00  0.116985D-02  0.000000D+00  0.000000D+00  0.348236D-02
      6  0.000000D+00  0.000000D+00 -0.424550D+00  0.000000D+00  0.000000D+00
      7 -0.362199D-01  0.000000D+00  0.000000D+00 -0.122110D-01  0.000000D+00
      8  0.000000D+00 -0.362199D-01  0.000000D+00  0.000000D+00 -0.122110D-01
      9  0.000000D+00  0.000000D+00 -0.118300D+01  0.000000D+00  0.000000D+00
     10  0.183205D-01  0.000000D+00  0.000000D+00  0.755876D-02  0.000000D+00
     11  0.000000D+00  0.183205D-01  0.000000D+00  0.000000D+00  0.755876D-02
     12  0.000000D+00  0.000000D+00 -0.689340D-01  0.000000D+00  0.000000D+00
                6             7             8             9            10 
      6  0.416800D+00
      7  0.000000D+00  0.105893D+00
      8  0.000000D+00  0.000000D+00  0.105893D+00
      9  0.988487D-03  0.000000D+00  0.000000D+00  0.184964D+01
     10  0.000000D+00 -0.574619D-01  0.000000D+00  0.000000D+00  0.315827D-01
     11  0.000000D+00  0.000000D+00 -0.574619D-01  0.000000D+00  0.000000D+00
     12  0.676135D-02  0.000000D+00  0.000000D+00 -0.667633D+00  0.000000D+00
               11            12 
     11  0.315827D-01
     12  0.000000D+00  0.729806D+00
 FormGI is forming the generalized inverse of G from B-inverse, IUseBI=4.
 Force constants in internal coordinates: 
                1             2             3             4             5 
      1  0.416800D+00
      2 -0.774984D-02  0.124418D+01
      3 -0.676135D-02  0.621726D-01  0.729806D+00
      4  0.000000D+00  0.000000D+00  0.000000D+00  0.139785D-01
      5  0.000000D+00  0.000000D+00  0.000000D+00  0.343068D-01  0.162306D+00
      6  0.000000D+00  0.000000D+00  0.000000D+00  0.000000D+00  0.000000D+00
      7  0.000000D+00  0.000000D+00  0.000000D+00  0.000000D+00  0.000000D+00
                6             7 
      6  0.139785D-01
      7  0.343068D-01  0.162306D+00
 Leave Link  716 at Fri Jan 29 00:59:18 2021, MaxMem=  6291456000 cpu:               1.5 elap:               0.1
 (Enter /home/orgChemistry/bin/gaussian16-C.01/g16/l103.exe)

 GradGradGradGradGradGradGradGradGradGradGradGradGradGradGradGradGradGrad
 Berny optimization.
 Red2BG is reusing G-inverse.
 Internal  Forces:  Max     0.000135702 RMS     0.000052776
 Search for a local minimum.
 Step number   1 out of a maximum of    2
 All quantities printed in internal units (Hartrees-Bohrs-Radians)
 Second derivative matrix not updated -- analytic derivatives used.
 The second derivative matrix:
                          R1        R2        R3        A1        A2
           R1           0.41680
           R2          -0.00775   1.24418
           R3          -0.00676   0.06217   0.72981
           A1           0.00000  -0.00000   0.00000   0.01398
           A2           0.00000  -0.00000   0.00000   0.03431   0.16231
           A3          -0.00000   0.00000  -0.00000  -0.00000  -0.00000
           A4          -0.00000   0.00000  -0.00000  -0.00000  -0.00000
                          A3        A4
           A3           0.01398
           A4           0.03431   0.16231
 ITU=  0
     Eigenvalues ---    0.00643   0.00643   0.16986   0.16986   0.41660
     Eigenvalues ---    0.72251   1.25168
 Angle between quadratic step and forces=   7.31 degrees.
 Linear search not attempted -- first point.
 Iteration  1 RMS(Cart)=  0.00005123 RMS(Int)=  0.00000000
 Iteration  2 RMS(Cart)=  0.00000000 RMS(Int)=  0.00000000
 ITry= 1 IFail=0 DXMaxC= 8.41D-05 DCOld= 1.00D+10 DXMaxT= 3.00D-01 DXLimC= 3.00D+00 Rises=F
 ClnCor:  largest displacement from symmetrization is 0.00D+00 for atom     0.
 Variable       Old X    -DE/DX   Delta X   Delta X   Delta X     New X
                                 (Linear)    (Quad)   (Total)
    R1        2.00254   0.00001   0.00000   0.00002   0.00002   2.00256
    R2        2.18214   0.00014   0.00000   0.00011   0.00011   2.18225
    R3        2.26647   0.00003   0.00000   0.00004   0.00004   2.26650
    A1        3.14159  -0.00000   0.00000   0.00000   0.00000   3.14159
    A2        3.14159  -0.00000   0.00000   0.00000   0.00000   3.14159
    A3        3.14159   0.00000   0.00000   0.00000   0.00000   3.14159
    A4        3.14159   0.00000   0.00000  -0.00000   0.00000   3.14159
         Item               Value     Threshold  Converged?
 Maximum Force            0.000136     0.000450     YES
 RMS     Force            0.000053     0.000300     YES
 Maximum Displacement     0.000084     0.001800     YES
 RMS     Displacement     0.000051     0.001200     YES
 Predicted change in Energy=-7.903017D-09
 Optimization completed.
    -- Stationary point found.
                           ----------------------------
                           !   Optimized Parameters   !
                           ! (Angstroms and Degrees)  !
 --------------------------                            --------------------------
 ! Name  Definition              Value          Derivative Info.                !
 --------------------------------------------------------------------------------
 ! R1    R(1,2)                  1.0597         -DE/DX =    0.0                 !
 ! R2    R(1,3)                  1.1547         -DE/DX =    0.0001              !
 ! R3    R(3,4)                  1.1994         -DE/DX =    0.0                 !
 ! A1    L(2,1,3,-1,-1)        180.0            -DE/DX =    0.0                 !
 ! A2    L(1,3,4,-1,-1)        180.0            -DE/DX =    0.0                 !
 ! A3    L(2,1,3,-2,-2)        180.0            -DE/DX =    0.0                 !
 ! A4    L(1,3,4,-2,-2)        180.0            -DE/DX =    0.0                 !
 --------------------------------------------------------------------------------
 GradGradGradGradGradGradGradGradGradGradGradGradGradGradGradGradGradGrad

 Leave Link  103 at Fri Jan 29 00:59:18 2021, MaxMem=  6291456000 cpu:               0.6 elap:               0.1
 (Enter /home/orgChemistry/bin/gaussian16-C.01/g16/l9999.exe)

 ----------------------------------------------------------------------

 Electric dipole moment (input orientation):
 (Debye = 10**-18 statcoulomb cm , SI units = C m)
                  (au)            (Debye)         (10**-30 SI)
   Tot        0.127020D+01      0.322853D+01      0.107692D+02
   x          0.000000D+00      0.000000D+00      0.000000D+00
   y          0.000000D+00      0.000000D+00      0.000000D+00
   z          0.127020D+01      0.322853D+01      0.107692D+02

 Dipole polarizability, Alpha (input orientation).
 (esu units = cm**3 , SI units = C**2 m**2 J**-1)
 Alpha(0;0):
               (au)            (10**-24 esu)      (10**-40 SI)
   iso        0.252063D+02      0.373519D+01      0.415596D+01
   aniso      0.266980D+02      0.395623D+01      0.440190D+01
   xx         0.163070D+02      0.241645D+01      0.268866D+01
   yx         0.000000D+00      0.000000D+00      0.000000D+00
   yy         0.163070D+02      0.241645D+01      0.268866D+01
   zx         0.000000D+00      0.000000D+00      0.000000D+00
   zy         0.000000D+00      0.000000D+00      0.000000D+00
   zz         0.430050D+02      0.637268D+01      0.709056D+01

 ----------------------------------------------------------------------

 Dipole orientation:
     6          0.00000000          0.00000000          2.31813971
     1          0.00000000          0.00000000          4.32068004
     7          0.00000000          0.00000000          0.13600093
     8          0.00000000          0.00000000         -2.13046503

 Electric dipole moment (dipole orientation):
 (Debye = 10**-18 statcoulomb cm , SI units = C m)
                  (au)            (Debye)         (10**-30 SI)
   Tot        0.127020D+01      0.322853D+01      0.107692D+02
   x          0.000000D+00      0.000000D+00      0.000000D+00
   y          0.000000D+00      0.000000D+00      0.000000D+00
   z          0.127020D+01      0.322853D+01      0.107692D+02

 Dipole polarizability, Alpha (dipole orientation).
 (esu units = cm**3 , SI units = C**2 m**2 J**-1)
 Alpha(0;0):
               (au)            (10**-24 esu)      (10**-40 SI)
   iso        0.252063D+02      0.373519D+01      0.415596D+01
   aniso      0.266980D+02      0.395623D+01      0.440190D+01
   xx         0.163070D+02      0.241645D+01      0.268866D+01
   yx         0.000000D+00      0.000000D+00      0.000000D+00
   yy         0.163070D+02      0.241645D+01      0.268866D+01
   zx         0.000000D+00      0.000000D+00      0.000000D+00
   zy         0.000000D+00      0.000000D+00      0.000000D+00
   zz         0.430050D+02      0.637268D+01      0.709056D+01

 ----------------------------------------------------------------------
 Unable to Open any file for archive entry.
 1\1\GINC-NODE2-064\Freq\RB3LYP\6-311++G(3df,3pd)\C1H1N1O1\RUTHM\29-Jan
 -2021\0\\#P Geom=AllCheck Guess=TCheck SCRF=Check GenChk RB3LYP/6-311+
 +G(3df,3pd) Freq\\title\\0,1\C,0.,0.,1.226706704\H,0.,0.,2.286405415\N
 ,0.,0.,0.071968595\O,0.,0.,-1.127393543\\Version=ES64L-G16RevC.01\Stat
 e=1-SG\HF=-168.6415802\RMSD=8.955e-10\RMSF=4.895e-05\ZeroPoint=0.01990
 38\Thermal=0.0236228\ETot=-168.6179574\HTot=-168.6170132\GTot=-168.643
 749\Dipole=0.,0.,1.2702031\DipoleDeriv=-0.1852513,0.,0.,0.,-0.1852513,
 0.,0.,0.,-1.1259507,0.2829764,0.,0.,0.,0.2829764,0.,0.,0.,0.3606931,0.
 1186087,0.,0.,0.,0.1186087,0.,0.,0.,2.4738416,-0.2163338,0.,0.,0.,-0.2
 163338,0.,0.,0.,-1.708584\Polar=16.3070055,0.,16.3070055,0.,0.,43.0049
 784\Quadrupole=-0.6720231,-0.6720231,1.3440461,0.,0.,0.\PG=C*V [C*(H1C
 1N1O1)]\NImag=0\\0.01672951,0.,0.01672951,0.,0.,1.67648079,0.00116985,
 0.,0.,0.00348236,0.,0.00116985,0.,0.,0.00348236,0.,0.,-0.42455017,0.,0
 .,0.41680033,-0.03621986,0.,0.,-0.01221097,0.,0.,0.10589277,0.,-0.0362
 1986,0.,0.,-0.01221097,0.,0.,0.10589277,0.,0.,-1.18299662,0.,0.,0.0009
 8849,0.,0.,1.84964157,0.01832050,0.,0.,0.00755876,0.,0.,-0.05746194,0.
 ,0.,0.03158269,0.,0.01832050,0.,0.,0.00755876,0.,0.,-0.05746194,0.,0.,
 0.03158269,0.,0.,-0.06893399,0.,0.,0.00676135,0.,0.,-0.66763344,0.,0.,
 0.72980608\\0.,0.,-0.00013042,0.,0.,-0.00000528,0.,0.,0.00010323,0.,0.
 ,0.00003248\\\@
 The archive entry for this job was punched.


 ERWIN WITH HIS PSI CAN DO
 CALCULATIONS QUITE A FEW.
 BUT ONE THING HAS NOT BEEN SEEN
 JUST WHAT DOES PSI REALLY MEAN.
 -- WALTER HUCKEL, TRANS. BY FELIX BLOCH
 Job cpu time:       0 days  0 hours  3 minutes  7.3 seconds.
 Elapsed time:       0 days  0 hours  0 minutes  8.7 seconds.
 File lengths (MBytes):  RWF=     19 Int=      0 D2E=      0 Chk=      3 Scr=      1
 Normal termination of Gaussian 16 at Fri Jan 29 00:59:18 2021.
