 --invoking executable--
/home/orgChemistry/bin/cfour_v21/bin/xjoda


   *************************************************************************
         <<<     CCCCCC     CCCCCC   |||     CCCCCC     CCCCCC   >>>
       <<<      CCC        CCC       |||    CCC        CCC         >>>
      <<<      CCC        CCC        |||   CCC        CCC            >>>
    <<<        CCC        CCC        |||   CCC        CCC              >>>
      <<<      CCC        CCC        |||   CCC        CCC            >>>
       <<<      CCC        CCC       |||    CCC        CCC         >>>
         <<<     CCCCCC     CCCCCC   |||     CCCCCC     CCCCCC   >>>
   *************************************************************************

     ****************************************************************
     * CFOUR Coupled-Cluster techniques for Computational Chemistry *
     ****************************************************************
 

   Department of Chemistry                Institut fuer Physikalische Chemie
   University of Florida                  Universitaet Mainz
   Gainesville, FL 32611, USA             D-55099 Mainz, Germany

   Department of Chemistry                Fakultaet fuer Chemie und Biowiss.
   Johns Hopkins University               Karlsruher Institut fuer Technologie
   Baltimore, MD 21218, USA               D-76131 Karlsruhe, Germany

   Department of Chemistry                Department of Physical Chemistry
   Southern Methodist University          Eotvos Lorand University
   Dallas, TX 75275, USA                  H-1053 Budapest, Hungary

 
                       Version 2.1
 
                     node2-110                                         
                     Wed Jan 27 20:19:21 CET 2021                      
                     integer*8 version is running
 
********************************************************************************
*                          Input from ZMAT file                                *
********************************************************************************
title                                                                           
H                                                                               
O 1 R12*                                                                        
H 2 R23* 1 A123*                                                                
                                                                                
R12           =        0.96109539                                               
R23           =        0.96109539                                               
A123          =        104.98839816                                             
                                                                                
*CFOUR(CALC=CCSD(T),BASIS=cc-pVTZ,FROZEN_CORE=1                                 
       CONVERGENCE=8                                                            
       MEMORY_SIZE=5000,MEM_UNIT=MB,ABCDTYPE=AOBASIS,CC_PROG=ECC                
       MULTIPLICITY=1,CHARGE=0                                                  
       SCF_CONV=8,CC_CONV=10)                                                   
                                                                                
********************************************************************************
    -------------------------------------------------------------------
                    CFOUR Control Parameters 
    -------------------------------------------------------------------
        External           Internal           Value            Units
          Name               Name
    -------------------------------------------------------------------
       ABCDTYPE             IABCDT         AOBASIS     [  2]    ***   
       ANHARMONIC           IANHAR         OFF         [  0]    ***   
       ANH_ALGORIT          IANALG         STANDARD    [  0]    ***   
       ANH_DERIVAT          IANDER         SECOND      [  1]    ***   
       ANH_MODE             ANHMOD         VIBRATION   [  0]    ***   
       ANH_STEPSIZ          ICUBST             50000          x 10-6  
       ANH_SYMMETR          IANHSM         ABELIAN     [  0]    ***   
       AO_LADDERS           IAOLAD         SINGLEPASS  [  1]    ***   
       AV_SCF               IAVSCF         OFF         [  0]    ***   
       BASIS                IBASIS         PVTZ        [ 14]    ***   
       BOTHVECTORS          BOTHVC         OFF         [  0]    ***   
       BOX_POTENT           IPIAB          OFF         [  0]    ***   
       BREIT                IBREIT         OFF         [  0]    ***   
       BRUCK_CONV           IBRTOL          10D-  4             ***   
       BRUECKNER            IBRKNR         OFF         [  0]    ***   
       BUFFERSIZE           IBUFFS              4096            ***   
       CACHE_RECS           ICHREC             10               ***   
       CALCLEVEL            ICLLVL         CCSD(T)     [ 22]    ***   
       CCORBOPT             ICCORB         OFF         [  0]  x 0.01  
       CC_CONV              ICCCNV          10D- 10             ***   
       CC_EXPORDER          ICCEOR              5               ***   
       CC_EXTRAPOL          ICCEXT         DIIS        [  1]    ***   
       CC_GUESS             ICCGES         MP2         [  0]    ***   
       CC_MAXCYC            ICCCYC            100              cycles 
       CC_PROGRAM           ICCPRO         ECC         [  1]    ***   
       CHARGE               ICHRGE              0               ***   
       CHOLESKY             ICHOLE         OFF         [  0]    ***   
       CIS_CONV             ICISTL              5               ***   
       COMM_SIZE            IPSIZE            ***               ***   
       CONSTANT             ICONST         OLD         [  1]    ***   
       CONTINUUM            ICONTU         NONE        [  0]    ***   
       CONTRACTION          ICNTYP         GENERAL     [  1]    ***   
       COORDINATES          ICOORD         INTERNAL    [  0]    ***   
       CPHF_CONVER          ICPHFT          10D- 16             ***   
       CPHF_MAXCYC          ICPHFC             64              cycles 
       CUBIC                ICUBIC         OFF         [  0]    ***   
       CURVILINEAR          ICURVY         OFF         [  0]    ***   
       DBOC                 IDBOC          OFF         [  0]    ***   
       DCT                  IDCT           OFF         [  0]    ***   
       DERIV_LEV            IDRLVL         FIRST       [  1]    ***   
       DEVMEM_SIZE          IDVMEM         *********           MByte  
       DIAG_MRCC            IEOMST          10D-  0             ***   
       DIFF_TYPE            IDIFTY         RELAXED     [  0]    ***   
       DIRECT               IDIRCT         OFF         [  0]    ***   
       DROPMO               IDRPMO      NONE         
       ECP                  IECP           OFF         [  0]    ***   
       EIGENVECTOR          IVEC                1               ***   
       EL_ANHARM            IELANH         OFF         [  0]    ***   
       EOMFOLLOW            IEOMSR         ENERGY      [  0]    ***   
       EOMIP                IEOMIP         OFF         [  0]    ***   
       EOMLEVEL             HBARFM         SAME        [  0]    ***   
       EOM_MRCC             IMRCCE         NEW         [  1]    ***   
       EOM_NONIT            EOMNON         OFF         [  0]    ***   
       EOM_NSING            IEOMSI          10D-  0             ***   
       EOM_NSTATES          IMRCCD         DAVIDSON    [  0]    ***   
       EOM_NTRIP            IEOMTR          10D-  0             ***   
       EOM_ORDER            IEXORD         ENERGY      [  0]    ***   
       EOM_PROPSTA          IEOMST              0               ***   
       ESTATE_CONV          IEXTOL          10D-  5             ***   
       ESTATE_DIAG          IEXDIG         ITERATIVE   [  0]    ***   
       ESTATE_LOCK          IESLOC         ON          [  1]    ***   
       ESTATE_MAXC          IEXMXC             40               ***   
       ESTATE_PROP          IEXPRP         OFF         [  0]    ***   
       EVAL_HESS            IRECAL              0            # of cyc.
       EXCITATION           IEXCIT              0               ***   
       EXCITE               IEXCIT         NONE        [  0]    ***   
       EXTERN_POT           IEXPOT         OFF         [  0]    ***   
       FCGRADNEW            IFCGNW         OFF         [  0]    ***   
       FC_FIELD             IFINFC              0             x 10-6  
       FD_CALTYPE           IFDCAL         GRADONLY    [  0]    ***   
       FD_PROJECT           IFDPRJ         OFF         [  1]    ***   
       FD_STEPSIZE          IDISFD              0            10-4 bohr
       FD_USEGROUP          IFDGRP         FULL        [  0]    ***   
       FILE_RECSIZ          IFLREC              4096           words  
       FINITE_PERT          IFIPER              0             x 10-6  
       FIXGEOM              IFIXGM         OFF         [  0]    ***   
       FOCK                 IFOCK          AO          [  1]    ***   
       FREQ_ALGORI          IVIALG         STANDARD    [  0]    ***   
       FROZEN_CORE          IFROCO         ON          [  1]    ***   
       GAMMA_ABCD           IGABCD         DIRECT      [  1]    ***   
       GAMMA_ABCI           IGABCI         STORE       [  0]    ***   
       GENBAS_1             IGNBS1              0               ***   
       GENBAS_2             IGNBS2              0               ***   
       GENBAS_3             IGNBS3              0               ***   
       GENBAS_4             IGNBS4              0               ***   
       GEO_CONV             ICONTL              8              H/bohr 
       GEO_MAXCYC           IOPTCY             50               ***   
       GEO_MAXSTEP          IMXSTP            300            millibohr
       GEO_METHOD           INR            NR          [  0]    ***   
       GIAO                 IGIAO          OFF         [  1]    ***   
       GIMIC                IGIMIC         OFF         [  0]    ***   
       GRID                 IGRID          OFF         [  0]    ***   
       GRID_ALGO            IGALGO         SERIAL      [  0]    ***   
       GUESS                IGUESS         MOREAD      [  0]    ***   
       HBAR                 IHBAR          OFF         [  0]    ***   
       HESS_TYPE            IHESTP         SCF         [  0]    ***   
       HF2_FILE             IHF2Fl         USE         [  1]    ***   
       HFSTABILITY          ISTABL         OFF         [  0]    ***   
       INCORE               INCORE         OFF         [  0]    ***   
       INPUT_MRCC           IMRCC          ON          [  1]    ***   
       INTEGRALS            INTTYP         VMOL        [  1]    ***   
       JODA_PRINT           IJPRNT              0               ***   
       KEYWORD_OUT          IDMPKW         NO          [  0]    ***   
       LINDEP_TOL           ILINDP              8               ***   
       LINEQ_CONV           IZTACN          10D-  7           cycles  
       LINEQ_EXPOR          ILMAXD              5               ***   
       LINEQ_MAXCY          ILMAXC            100               ***   
       LINEQ_TYPE           ILTYPE         DIIS        [  1]    ***   
       LOCK_ORBOCC          ILOCOC         OFF         [  0]    ***   
       MEMORY_SIZE          IMEMSZ         625000000           words  
       MEM_UNIT             IMEMU          MB          [  2]    ***   
       MRCC                 IMRCCC         OFF         [  0]    ***   
       MULTIPLICTY          IMULTP              1               ***   
       NACOUPLING           IVCOUP         OFF         [  0]    ***   
       NEGEVAL              IDIE           ABORT       [  0]    ***   
       NEWNORM              INEWNO         OFF         [  0]    ***   
       NON-HF               INONHF         OFF         [  0]    ***   
       NTOP_TAMP            ITOPT2             15               ***   
       NUC_MODEL            INUCMO         POINT       [  0]    ***   
       OCCUPATION           IOCCU   ESTIMATED BY SCF 
       OPEN-SHELL           IOPEN          SPIN-ORBITAL[  0]    ***   
       OPTVIB               IOPTVB         OFF         [  0]    ***   
       ORBITALS             IORBTP         STANDARD    [  0]    ***   
       PARALLEL             IPARAL         ON          [  1]    ***   
       PARA_INT             IPINTS         ON          [  1]    ***   
       PARA_PRINT           IPPRIN              0               ***   
       PERT_ORB             IPTORB         CANONICAL   [  1]    ***   
       POINTS               IGRDFD              0               ***   
       PRINT                IPRNT               0               ***   
       PROPS                IPROPS         OFF         [  0]    ***   
       PROP_INTEGR          IINTYP         INTERNAL    [  0]    ***   
       PSI                  IPSI           OFF         [  0]    ***   
       QC_ALG               IQCALG         FLM         [  0]    ***   
       QC_LINALG            IQCLIN         TRIDIAG     [  2]    ***   
       QC_MAXCYC            IQCMAX          10D-100           cycles  
       QC_MAXSCFCY          IQCMSC          10D- 15           cycles  
       QC_RTRUST            IQCRTR          10D-  0           x 10-3  
       QC_SKIPSCF           IQCSKI         OFF         [  0]    ***   
       QC_START             IQCSTA          10D-  1             ***   
       QRHFGUESS            IQGUES         OFF         [  0]    ***   
       QUARTIC              IQUART         OFF         [  0]    ***   
       RAMAN_INT            IRAMIN         OFF         [  0]    ***   
       RAMAN_ORB            IRAMRE         UNRELAXED   [  0]    ***   
       RDO                  IRDOFM         ON          [  1]    ***   
       REDUCE_REPR          REDREP         Ir          [  0]    ***   
       REFERENCE            IREFNC         RHF         [  0]    ***   
       RELATIVIST           IRELAT         OFF         [  0]    ***   
       RELAX_DENS           IRDENS         ON          [  1]    ***   
       RESET_FLAGS          IRESET         OFF         [  0]    ***   
       RESTART_CC           ICCRES         OFF         [  0]    ***   
       ROT_EVEC             ROTVEC              0               ***   
       SAVE_INTS            ISVINT         OFF         [  0]    ***   
       SCALE_ON             ISTCRT              0               ***   
       SCF_CONV             ISCFCV          10D-  8             ***   
       SCF_DAMPING          IDAMP               0             x 10-3  
       SCF_EXPORDE          IRPPOR              6               ***   
       SCF_EXPSTAR          IRPPLS              8               ***   
       SCF_EXTRAPO          IRPP           ON          [  1]    ***   
       SCF_MAXCYC           ISCFCY            150              cycles 
       SCF_NOSTOP           ISCFST         OFF         [  0]    ***   
       SCF_PRINT            ISCFPR              0               ***   
       SCF_PROG             ISCFPR         SCF         [  0]    ***   
       SD_FIELD             IFINSD              0             x 10-6  
       SOPERT               IPERSO         OFF         [  0]    ***   
       SPHERICAL            IDFGHI         ON          [  1]    ***   
       SPINORBIT            ISOCAL         OFF         [  0]    ***   
       SPINROTATIO          ISRCON         OFF         [  0]    ***   
       SPIN_FLIP            ISPFLP         OFF         [  0]    ***   
       SPIN_ORBIT           ISPORB         OFF         [  0]    ***   
       SPIN_SCAL            ISCSMP         OFF         [  0]    ***   
       STEEPSCALE           ISTPSC              1000          x 10-3  
       SUBGROUP             ISUBGP         DEFAULT     [  0]    ***   
       SUBGRPAXIS           ISBXYZ         X           [  0]    ***   
       SYMMETRY             ISYM           ON          [  0]    ***   
       SYM_CHECK            ISYMCK         OVERRIDE    [  1]    ***   
       T3_EXTRAPOL          IT3EXT         OFF         [  0]    ***   
       T4_EXTRAPOL          IT4EXP         OFF         [  0]    ***   
       TAMP_SUM             IEVERY              5               ***   
       TESTSUITE            ITESTS         OFF         [  0]    ***   
       THERMOCH             ITHERM         OFF         [  0]    ***   
       TOL_CHOLESK          ITOLCH          10D-  4             ***   
       TRANGRAD             IRESRM         OFF         [  0]    ***   
       TRANS_INV            ITRAIN         USE         [  0]    ***   
       TREAT_PERT           ITREAT         SIMULTANEOUS[  0]    ***   
       TRIP_ALGORI          ITRALG         NORMAL      [  0]    ***   
       UIJ_THRESHO          IUIJTH              1               ***   
       UNITS                IUNITS         ANGSTROM    [  0]    ***   
       UNOS                 IUNOS          OFF         [  0]    ***   
       UPDATE_HESS          IHUPDT         ON          [  1]    ***   
       VIBPHASE             ISETPH         STANDARD    [  0]    ***   
       VIBRATION            IVIB           NO          [  0]    ***   
       VIB_ALGORIT          IGEALG         STANDARD    [  0]    ***   
       VNATORB              IVNORB         OFF         [  0]    ***   
       VTRAN                IVTRAN         PARTIAL     [  2]    ***   
       XFIELD               IXEFLD              0             x 10-6  
       XFORM_TOL            IXFTOL          10D- 11             ***   
       YFIELD               IYEFLD              0             x 10-6  
       ZFIELD               IZEFLD              0             x 10-6  
       ZSCALE_EXP           IZEXPS         OFF         [  0]    ***   
    -------------------------------------------------------------------
   3 entries found in Z-matrix 
   Job Title : title                                                                           
   There are  3 unique internal coordinates.
   Of these,  3 will be optimized.
   User supplied Z-matrix: 
--------------------------------------------------------------------------------
       SYMBOL    BOND      LENGTH    ANGLE     ANGLE     DIHED     ANGLE
                  TO      (ANGST)    WRT      (DEG)      WRT      (DEG)
--------------------------------------------------------------------------------
        H    
        O          1         R12  
        H          2         R23        1        A123 
                  *Initial values for internal coordinates* 
                      Name             Value
                        R12             0.9610953900
                        R23             0.9610953900
                        A123          104.9883981600
--------------------------------------------------------------------------------
   Rotational constants (in cm-1): 
          9.4460394744            14.3874095348            27.5033111748
   Rotational constants (in MHz): 
     283185.1789139505        431323.7472970270        824528.6415370676
********************************************************************************
   The full molecular point group is C2v .
   The largest Abelian subgroup of the full molecular point group is C2v .
   The computational point group is C2v .
********************************************************************************
--------------------------------------------------------------------------------
   Analysis of internal coordinates specified by Z-matrix 
--------------------------------------------------------------------------------
   *The nuclear repulsion energy is    9.156600034846802 a.u.
  *WARNING* Parameters R23   and R12   appear to be equivalent.
   *There are   2 degrees of freedom within the tot. symm. molecular subspace.
   *Z-matrix requests optimization of   3 coordinates.
   *The following   2 parameters can have non-zero 
    derivatives within the totally symmetric subspace:
             A123 [ 3]  R23  [ 2]
   *The following   3 parameters are to be optimized:
             R12  [ 1]  R23  [ 2]  A123 [ 3]

--------------------------------------------------------------------------------


 ----------------------------------------------------------------
         Coordinates used in calculation (QCOMP) 
 ----------------------------------------------------------------
 Z-matrix   Atomic            Coordinates (in bohr)
  Symbol    Number           X              Y              Z
 ----------------------------------------------------------------
     H         1         0.00000000    -1.44078230     0.98202936
     O         8         0.00000000    -0.00000000    -0.12375356
     H         1         0.00000000     1.44078230     0.98202936
 ----------------------------------------------------------------
 
   Interatomic distance matrix (Angstroms) 
 
                 H             O             H    
                [ 1]        [ 2]        [ 3]
  H    [ 1]     0.00000
  O    [ 2]     0.96110     0.00000
  H    [ 3]     1.52486     0.96110     0.00000
 rotcon2
   Rotational constants (in cm-1): 
          9.4460394744            27.5033111748            14.3874095348
   Rotational constants (in MHz): 
     283185.1789139505        824528.6415370677        431323.7472970271
  There is   1 frozen-core orbital.
  There are   58 basis functions.
 @CHECKOUT-I, Total execution time (CPU/WALL):        0.09/       0.23 seconds.
--executable xjoda finished with status     0 in        0.24 seconds (walltime).
 --invoking executable--
/home/orgChemistry/bin/cfour_v21/bin/xvmol
 SERIAL VERSION OF MOLECULE STARTED
********************************************************************************
                    INPUT FROM MOL FILE
********************************************************************************
INTGRL        1    0    1    0    0    0    0    0    0                         
         *** CFOUR Program System (Release V0.1) ***                            
title                                                                           
    2    2 X  Y       0.10E-08              0    0                              
   9999.00      3.00                                                            
          1.00000000    1    3    1    1    1                                   
H #1   0.000000000000000  -1.440782297259411   0.982029363445375                
    5    3                                                                      
   33.8700000000000       6.068000000000000E-003  0.000000000000000E+000        
  0.000000000000000E+000                                                        
   5.09500000000000       4.530800000000000E-002  0.000000000000000E+000        
  0.000000000000000E+000                                                        
   1.15900000000000       0.202822000000000       0.000000000000000E+000        
  0.000000000000000E+000                                                        
  0.325800000000000       0.503903000000000        1.00000000000000             
  0.000000000000000E+000                                                        
  0.102700000000000       0.383421000000000       0.000000000000000E+000        
   1.00000000000000                                                             
    2    2                                                                      
   1.40700000000000        1.00000000000000       0.000000000000000E+000        
  0.388000000000000       0.000000000000000E+000   1.00000000000000             
    1    1                                                                      
   1.05700000000000        1.00000000000000                                     
          8.00000000    1    4    1    1    1    1                              
O #2   0.000000000000000  -0.000000000000000  -0.123753555486824                
   10    4                                                                      
   15330.0000000000       5.080000000000000E-004 -1.150000000000000E-004        
  0.000000000000000E+000  0.000000000000000E+000                                
   2299.00000000000       3.929000000000000E-003 -8.950000000000000E-004        
  0.000000000000000E+000  0.000000000000000E+000                                
   522.400000000000       2.024300000000000E-002 -4.636000000000000E-003        
  0.000000000000000E+000  0.000000000000000E+000                                
   147.300000000000       7.918100000000000E-002 -1.872400000000000E-002        
  0.000000000000000E+000  0.000000000000000E+000                                
   47.5500000000000       0.230687000000000      -5.846300000000000E-002        
  0.000000000000000E+000  0.000000000000000E+000                                
   16.7600000000000       0.433118000000000      -0.136463000000000             
  0.000000000000000E+000  0.000000000000000E+000                                
   6.20700000000000       0.350260000000000      -0.175740000000000             
  0.000000000000000E+000  0.000000000000000E+000                                
   1.75200000000000       4.272800000000000E-002  0.160934000000000             
   1.00000000000000       0.000000000000000E+000                                
  0.688200000000000      -8.154000000000000E-003  0.603418000000000             
  0.000000000000000E+000  0.000000000000000E+000                                
  0.238400000000000       2.381000000000000E-003  0.378765000000000             
  0.000000000000000E+000   1.00000000000000                                     
    5    3                                                                      
   34.4600000000000       1.592800000000000E-002  0.000000000000000E+000        
  0.000000000000000E+000                                                        
   7.74900000000000       9.974000000000000E-002  0.000000000000000E+000        
  0.000000000000000E+000                                                        
   2.28000000000000       0.310492000000000       0.000000000000000E+000        
  0.000000000000000E+000                                                        
  0.715600000000000       0.491026000000000        1.00000000000000             
  0.000000000000000E+000                                                        
  0.214000000000000       0.336337000000000       0.000000000000000E+000        
   1.00000000000000                                                             
    2    2                                                                      
   2.31400000000000        1.00000000000000       0.000000000000000E+000        
  0.645000000000000       0.000000000000000E+000   1.00000000000000             
    1    1                                                                      
   1.42800000000000        1.00000000000000                                     
FINISH                                                                          
 
********************************************************************************
 ONE- AND TWO-ELECTRON INTEGRALS OVER SYMMETRY-ADAPTED AOS ARE CALCULATED.

  SPHERICAL HARMONICS ARE USED.
  
  INTEGRALS LESS THAN  0.10E-13 ARE NEGLECTED.

  NUCLEAR REPULSION ENERGY :    9.1566000348 A.U.
  @MOLECU-I, ONE ELECTRON INTEGRALS (CPU/WALL):        0.01/       0.01 SECONDS.
  @TWOEL-I,      47646 INTEGRALS OF SYMMETRY TYPE  I I I I
  @TWOEL-I,     139316 INTEGRALS OF SYMMETRY TYPE  I J I J
  @TWOEL-I,      78175 INTEGRALS OF SYMMETRY TYPE  I I J J
  @TWOEL-I,      84950 INTEGRALS OF SYMMETRY TYPE  I J K L
  @TWOEL-I, TOTAL NUMBER OF 2-E INTEGRALS     350087.
  @MOLECU-I, TWO ELECTRON INTEGRALS (CPU/WALL):        0.18/       0.24 SECONDS.
 @CHECKOUT-I, Total execution time (CPU/WALL):        0.19/       0.27 seconds.

Running with 24 threads/proc

--executable xvmol finished with status     0 in        0.28 seconds (walltime).
 --invoking executable--
/home/orgChemistry/bin/cfour_v21/bin/xvmol2ja
 @GETMEM-I,  Allocated    4768 MB of main memory.
 @CHECKOUT-I, Total execution time (CPU/WALL):        0.00/       0.01 seconds.
--executable xvmol2ja finished with status     0 in        0.02 seconds (walltime).
 --invoking executable--
/home/orgChemistry/bin/cfour_v21/bin/xvscf
  There are   58 functions in the AO basis.

  There are 4 irreducible representations.

       Irrep        # of functions
         1                 23
         2                 11
         3                 17
         4                  7


  Parameters for SCF calculation: 
        SCF reference function:  RHF  
  Maximum number of iterations:  150
     Full symmetry point group: C2v 
     Computational point group: C2v 
        Initial density matrix: MOREAD                 
     SCF convergence tolerance: 10**(- 8)
  DIIS convergence acceleration:  ON
          Latest start for DIIS:   8
                     DIIS order:   6

  Memory information:     179852 words required.
  Fock matrices are constructed from AO integral file.
 @GETMEM-I,  Allocated       1 MB of main memory.
  Initialization and symmetry analysis required      0.002 seconds.

  @INITGES-I, Occupancies from core Hamiltonian:

          Alpha population by irrep:   3    1    1    0
           Beta population by irrep:   3    1    1    0


 total no. of electrons in initial guess :  0.000000000000000E+000
  --------------------------------------------------------------------
  Iteration         Total Energy            Largest Density Difference
  --------------------------------------------------------------------
       0             9.156600034846802              0.0000000000D+00
   current occupation vector 
     3  1  1  0
     3  1  1  0
       1           -61.401056387262884              0.1204680226D+02
   current occupation vector 
     3  1  1  0
     3  1  1  0
       2           -66.708328466275134              0.1199380777D+02
   current occupation vector 
     3  0  2  0
     3  0  2  0
       3           -71.745110493425315              0.1030402340D+02
   current occupation vector 
     3  1  1  0
     3  1  1  0
       4           -70.210805145699865              0.8526700146D+01
   current occupation vector 
     3  0  2  0
     3  0  2  0
       5           -73.095314879898979              0.8501714329D+01
   current occupation vector 
     3  1  1  0
     3  1  1  0
       6           -72.899893934192676              0.6502691725D+01
   current occupation vector 
     4  0  1  0
     4  0  1  0
       7           -74.301626218168479              0.6570488234D+01
   current occupation vector 
     3  1  1  0
     3  1  1  0
       8           -75.115351716010636              0.3091342855D+01
   current occupation vector 
     3  1  1  0
     3  1  1  0
       9           -76.040103041784008              0.1042849232D+01
   current occupation vector 
     3  1  1  0
     3  1  1  0
      10           -76.056668846165962              0.1460577858D+00
   current occupation vector 
     3  1  1  0
     3  1  1  0
      11           -76.056881806426262              0.1232266503D-01
   current occupation vector 
     3  1  1  0
     3  1  1  0
      12           -76.056889415253693              0.4750582803D-02
   current occupation vector 
     3  1  1  0
     3  1  1  0
      13           -76.056889983960176              0.1250281382D-02
   current occupation vector 
     3  1  1  0
     3  1  1  0
      14           -76.056890014729760              0.2881483887D-03
   current occupation vector 
     3  1  1  0
     3  1  1  0
      15           -76.056890015034583              0.2507295179D-04
   current occupation vector 
     3  1  1  0
     3  1  1  0
      16           -76.056890015041461              0.5656256384D-05
   current occupation vector 
     3  1  1  0
     3  1  1  0
      17           -76.056890015041944              0.1653348725D-05
   current occupation vector 
     3  1  1  0
     3  1  1  0
      18           -76.056890015041901              0.2753216588D-06
   current occupation vector 
     3  1  1  0
     3  1  1  0
      19           -76.056890015041475              0.3803264814D-07
   current occupation vector 
     3  1  1  0
     3  1  1  0

  SCF has converged.

 Density matrix saved to file den.dat
 total electron number:   10.0000000000000     
     E(SCF)=       -76.056890015041475              0.8581455768D-08

  Eigenvector printing suppressed.

 @PUTMOS-I, Writing converged MOs to NEWMOS. 
 @PUTMOS-I, Symmetry   1 Full Blocks  5 Partial Blocksize   3
 @PUTMOS-I, Symmetry   2 Full Blocks  2 Partial Blocksize   3
 @PUTMOS-I, Symmetry   3 Full Blocks  4 Partial Blocksize   1
 @PUTMOS-I, Symmetry   4 Full Blocks  1 Partial Blocksize   3
 @PUTFOCK-I, Writing converged Fock matrix to NEWFOCK. 
 @PUTFOCK-I, Symmetry   1 Full Blocks  5 Partial Blocksize   3
 @PUTFOCK-I, Symmetry   2 Full Blocks  2 Partial Blocksize   3
 @PUTFOCK-I, Symmetry   3 Full Blocks  4 Partial Blocksize   1
 @PUTFOCK-I, Symmetry   4 Full Blocks  1 Partial Blocksize   3


 
  ORBITAL EIGENVALUES (ALPHA)  (1H = 27.2113834 eV)

       MO #        E(hartree)               E(eV)           FULLSYM    COMPSYM
       ----   --------------------   --------------------   -------   ---------
    1     1         -20.5551808963        -559.3349082260      A1        A1 (1)
    2     2          -1.3433121727         -36.5533825586      A1        A1 (1)
    3    35          -0.7085735899         -19.2812676218      B2        B2 (3)
    4     3          -0.5760406326         -15.6748625089      A1        A1 (1)
    5    24          -0.5040012816         -13.7145721089      B1        B1 (2)
  +++++++++++++++++++++++++++++++++++++++++++++++++++++++++++++++++++++++++++++
    6     4           0.1419489245           3.8626266076      A1        A1 (1)
    7    36           0.2036005269           5.5402519991      B2        B2 (3)
    8    37           0.5434447190          14.7878826051      B2        B2 (3)
    9     5           0.5982544811          16.2793320549      A1        A1 (1)
   10     6           0.6692929109          18.2123860048      A1        A1 (1)
   11    25           0.7874682797          21.4281012741      B1        B1 (2)
   12     7           0.8025092547          21.8373870117      A1        A1 (1)
   13    38           0.8048684651          21.9015843892      B2        B2 (3)
   14    52           0.8592999085          23.3827392662      A2        A2 (4)
   15    26           0.9568104005          26.0361346493      B1        B1 (2)
   16     8           1.1339923046          30.8574993741      A1        A1 (1)
   17    39           1.1934777667          32.4761810890      B2        B2 (3)
   18    40           1.5246969905          41.4891143771      B2        B2 (3)
   19     9           1.5593048934          42.4308432914      A1        A1 (1)
   20    27           2.0330956887          55.3233462734      B1        B1 (2)
   21    41           2.0583070322          56.0093818068      B2        B2 (3)
   22    53           2.0655857268          56.2074451566      A2        A2 (4)
   23    10           2.1690598853          59.0231201554      A1        A1 (1)
   24    11           2.2359744037          60.8439567726      A1        A1 (1)
   25    12           2.5909170262          70.5024365579      A1        A1 (1)
   26    42           2.9590882284          80.5208842983      B2        B2 (3)
   27    28           3.3603485518          91.4397328019      B1        B1 (2)
   28    13           3.4914667457          95.0076402463      A1        A1 (1)
   29    54           3.5753289299          97.2896462939      A2        A2 (4)
   30    43           3.6478918430          99.2641835408      B2        B2 (3)
   31    29           3.7982595888         103.3558979244      B1        B1 (2)
   32    44           3.8748388728         105.4397261808      B2        B2 (3)
   33    14           3.8828088157         105.6565993520      A1        A1 (1)
   34    55           3.9576807963         107.6939695231      A2        A2 (4)
   35    30           4.0198407462         109.3854277525      B1        B1 (2)
   36    45           4.0761420487         110.9174640814      B2        B2 (3)
   37    15           4.1872981368         113.9421750112      A1        A1 (1)
   38    56           4.3101366659         117.2847813211      A2        A2 (4)
   39    16           4.3879257152         119.4015289684      A1        A1 (1)
   40    46           4.5670953634         124.2769829580      B2        B2 (3)
   41    31           4.6824147182         127.4149821358      B1        B1 (2)
   42    47           4.8568817120         132.1624703929      B2        B2 (3)
   43    17           5.1413912468         139.9043684259      A1        A1 (1)
   44    18           5.2504683852         142.8725082592      A1        A1 (1)
   45    48           5.5277046421         150.4164903371      B2        B2 (3)
   46    32           6.0421178237         164.4143846477      B1        B1 (2)
   47    19           6.5493089271         178.2157562199      A1        A1 (1)
   48    33           6.9137203495         188.1318951515      B1        B1 (2)
   49    57           6.9378567094         188.7886788942      A2        A2 (4)
   50    34           7.0006850310         190.4983244412      B1        B1 (2)
   51    20           7.0101182811         190.7550162275      A1        A1 (1)
   52    49           7.0619636532         192.1658005232      B2        B2 (3)
   53    21           7.1608292721         194.8560707859      A1        A1 (1)
   54    58           7.2274571684         196.6691080164      A2        A2 (4)
   55    22           7.4563207255         202.8968020162      A1        A1 (1)
   56    50           7.7823443222         211.7683551018      B2        B2 (3)
   57    51           8.2692746105         225.0184018663      B2        B2 (3)
   58    23          12.8166958374         348.7600243516      A1        A1 (1)


  VSCF finished.

 @CHECKOUT-I, Total execution time (CPU/WALL):        0.09/       0.25 seconds.
--executable xvscf finished with status     0 in        0.26 seconds (walltime).
 --invoking executable--
/home/orgChemistry/bin/cfour_v21/bin/xvtran
 @GETMEM-I,  Allocated    4768 MB of main memory.
  Partial RHF integral transformation
  Frozen-core orbitals requested within analytic derivative calculation
  Transformation of IIII integrals :
  1 pass through the AO integral file was required.
       47646 AO integrals were read.
       19207 MO integrals were written to HF2.
  Transformation of IIJJ integrals :
  1 pass through the AO integral file was required.
       78175 AO integrals were read.
       25584 MO integrals were written to HF2.
  Transformation of IJIJ integrals :
  1 pass through the AO integral file was required.
      139316 AO integrals were read.
       46506 MO integrals were written to HF2.
  Transformation of IJKL integrals :
  1 pass through the AO integral file was required.
       84950 AO integrals were read.
       23121 MO integrals were written to HF2.
  Summary of active molecular orbitals: 
------------------------------------------------------------------------
 
  Index      Eigenvalue    Symmetry    Index      Eigenvalue    Symmetry
------------------------------------------------------------------------
     1       -20.5551809        1        30         3.7982596        2
     2        -1.3433122        1        31         4.0198407        2
     3        -0.5760406        1        32         4.6824147        2
     4        -0.5040013        2        33         6.0421178        2
     5        -0.7085736        3        34         6.9137203        2
     6         0.1419489        1        35         7.0006850        2
     7         0.5982545        1        36         0.2036005        3
     8         0.6692929        1        37         0.5434447        3
     9         0.8025093        1        38         0.8048685        3
    10         1.1339923        1        39         1.1934778        3
    11         1.5593049        1        40         1.5246970        3
    12         2.1690599        1        41         2.0583070        3
    13         2.2359744        1        42         2.9590882        3
    14         2.5909170        1        43         3.6478918        3
    15         3.4914667        1        44         3.8748389        3
    16         3.8828088        1        45         4.0761420        3
    17         4.1872981        1        46         4.5670954        3
    18         4.3879257        1        47         4.8568817        3
    19         5.1413912        1        48         5.5277046        3
    20         5.2504684        1        49         7.0619637        3
    21         6.5493089        1        50         7.7823443        3
    22         7.0101183        1        51         8.2692746        3
    23         7.1608293        1        52         0.8592999        4
    24         7.4563207        1        53         2.0655857        4
    25        12.8166958        1        54         3.5753289        4
    26         0.7874683        2        55         3.9576808        4
    27         0.9568104        2        56         4.3101367        4
    28         2.0330957        2        57         6.9378567        4
    29         3.3603486        2        58         7.2274572        4
------------------------------------------------------------------------
  -20.5551808963149       -1.34331217274935      -0.576040632646810     
 -0.504001281642896      -0.708573589897463       0.141948924491461     
  0.598254481061021       0.669292910878233       0.802509254701020     
   1.13399230463705        1.55930489338663        2.16905988526150     
   2.23597440373472        2.59091702621462        3.49146674572524     
   3.88280881566808        4.18729813682153        4.38792571524897     
   5.14139124679170        5.25046838519637        6.54930892708434     
   7.01011828114344        7.16082927212973        7.45632072554503     
   12.8166958373595       0.787468279694562       0.956810400505037     
   2.03309568867576        3.36034855184469        3.79825958883185     
   4.01984074622727        4.68241471823737        6.04211782366527     
   6.91372034953337        7.00068503100084       0.203600526944895     
  0.543444718987764       0.804868465056155        1.19347776669781     
   1.52469699049355        2.05830703215051        2.95908822843114     
   3.64789184296913        3.87483887279442        4.07614204874961     
   4.56709536340672        4.85688171197243        5.52770464206331     
   7.06196365316561        7.78234432218574        8.26927461050351     
  0.859299908515311        2.06558572676672        3.57532892994834     
   3.95768079630614        4.31013666586070        6.93785670941659     
   7.22745716839975     
 @CHECKOUT-I, Total execution time (CPU/WALL):        0.03/       0.10 seconds.
--executable xvtran finished with status     0 in        0.11 seconds (walltime).
 --invoking executable--
/home/orgChemistry/bin/cfour_v21/bin/xintprc
 @GETMEM-I,  Allocated    4768 MB of main memory.
  @GMOIAA-I, Processing MO integrals for spin case AA.
  @GMOIAA-I, Generation of integral list completed.
                      TYPE                NUMBER
                      ----               --------
                      PPPP                     0
                      PPPH                 98028
                      PPHH                  9372
                      PHPH                  5838
                      PHHH                  1131
                      HHHH                    49

                     TOTAL                114418

  @FORMT2-I, Second-order MP correlation energies:
            ------------------------------------------------
            E(SCF)                  =    -76.056890015041 a.u.
            E2(AA)                  =     -0.031775441181 a.u.
            E2(AB)                  =     -0.198149264436 a.u.
            E2(TOT)                 =     -0.261700146799 a.u.
            Total MP2 energy        =    -76.318590161840 a.u.
            ------------------------------------------------
   Largest T2 amplitudes for spin case AB:
       _       _                 _       _                 _       _
   i   j   a   b             i   j   a   b             i   j   a   b
-----------------------------------------------------------------------------
[  4   4  26  26]-0.04499 [  3   3   8   8]-0.02845 [  4   3  26   8] 0.02766
[  3   4   8  26] 0.02766 [  5   4  38  26] 0.02336 [  4   5  26  38] 0.02336
[  5   5  37  37]-0.02321 [  5   5   7   7]-0.02219 [  5   5  38  38]-0.02147
[  5   4  36  26] 0.02085 [  4   5  26  36] 0.02085 [  3   3  37  37]-0.01951
[  5   5  36  36]-0.01867 [  5   3  38   8]-0.01864 [  3   5   8  38]-0.01864
-----------------------------------------------------------------------------
   Norm of T2AB vector (    18479 symmetry allowed elements):  0.2120796010.
-----------------------------------------------------------------------------
 @CHECKOUT-I, Total execution time (CPU/WALL):        0.03/       0.20 seconds.
--executable xintprc finished with status     0 in        0.21 seconds (walltime).
  calling xecc 
 --invoking executable--
/home/orgChemistry/bin/cfour_v21/bin/xecc
 @GETMEM-I,  Allocated    4768 MB of main memory.
 CCSD(T) energy will be calculated.
 AO based algorithm is used. 
   Frozen core orbitals in analytic derivative calculation
 Largest T2 amplitudes for spin case AB:
        _       _                 _       _                 _       _
    i   j   a   b             i   j   a   b             i   j   a   b
 -----------------------------------------------------------------------------
 [  4   4  26  26]-0.04499 [  3   3   8   8]-0.02845 [  4   3  26   8] 0.02766
 [  3   4   8  26] 0.02766 [  5   4  38  26] 0.02336 [  4   5  26  38] 0.02336
 [  5   5  37  37]-0.02321 [  5   5   7   7]-0.02219 [  5   5  38  38]-0.02147
 [  5   4  36  26] 0.02085 [  4   5  26  36] 0.02085 [  3   3  37  37]-0.01951
 [  5   5  36  36]-0.01867 [  5   3  38   8]-0.01864 [  3   5   8  38]-0.01864
 -----------------------------------------------------------------------------
 Norm of T2AB vector (    18479 symmetry allowed elements):  0.2120796010.
 -----------------------------------------------------------------------------
 The total correlation energy is -0.261700146799 a.u.
 Resorts of amplitudes and integrals (CPU/WALL):       0.00/       0.00 seconds.
 Starting iterative solution of the CC equations.
 The DIIS procedure is used to accelerate convergence.
 5 expansion vectors are used in the DIIS extrapolation.
 Convergence criterium is 10**(-10).
 Maximum number of iterations is 100.
 >>>>>>>>>>>>>>>>>>>>>>>>>>>>>>>>>>>>>>>>>>>>>>>>>>>>>>>>>>>>>>>>>>>>>>>>>>>>>>>
 Iteration Nr.   1 started:
 Generation of Intermediates required (CPU/WALL):      0.01/       0.03 seconds.
 Transformation of t(ab,ij) amplitudes required    0.0 seconds.
 Contraction of t(mu nu,ij) with AO integrals required    0.0 seconds.
 Backtransformation of t(mu nu,ij) increments required    0.0 seconds.
 Construction of Hbar required (CPU/WALL):             0.03/       0.06 seconds.
   Frozen core orbitals in analytic derivative calculation
 Amplitude changes are:
 -------------------------------------------------------------------
              Spin      RMS          Max.      Max. change for
  Amplitude   Case     Change       Change       i    j    a    b
 -------------------------------------------------------------------
     T1        AA    0.0001873162-0.0058655480    4        26
     T2        AB    0.0000013134-0.0025711692    4    3   26    8
 -------------------------------------------------------------------
 The total correlation energy is -0.262018076595 a.u.
 Convergence information after     1 iterations: 
 Largest element of residual vector : -0.58655480E-02.
 Largest element of DIIS residual   : -0.58655480E-02.
 Iteration Nr.   1 required (CPU/WALL):                0.04/       0.10 seconds.
 >>>>>>>>>>>>>>>>>>>>>>>>>>>>>>>>>>>>>>>>>>>>>>>>>>>>>>>>>>>>>>>>>>>>>>>>>>>>>>>
 Iteration Nr.   2 started:
 Generation of Intermediates required (CPU/WALL):      0.01/       0.03 seconds.
 Transformation of t(ab,ij) amplitudes required    0.0 seconds.
 Contraction of t(mu nu,ij) with AO integrals required    0.0 seconds.
 Backtransformation of t(mu nu,ij) increments required    0.0 seconds.
 Construction of Hbar required (CPU/WALL):             0.03/       0.06 seconds.
   Frozen core orbitals in analytic derivative calculation
 Amplitude changes are:
 -------------------------------------------------------------------
              Spin      RMS          Max.      Max. change for
  Amplitude   Case     Change       Change       i    j    a    b
 -------------------------------------------------------------------
     T1        AA    0.0000208914-0.0008765093    4        26
     T2        AB    0.0000005356-0.0022486843    4    4   26   26
 -------------------------------------------------------------------
 The total correlation energy is -0.266771814833 a.u.
 Convergence information after     2 iterations: 
 Largest element of residual vector : -0.22486843E-02.
 Largest element of DIIS residual   : -0.23075526E-02.
 Iteration Nr.   2 required (CPU/WALL):                0.04/       0.11 seconds.
 >>>>>>>>>>>>>>>>>>>>>>>>>>>>>>>>>>>>>>>>>>>>>>>>>>>>>>>>>>>>>>>>>>>>>>>>>>>>>>>
 Iteration Nr.   3 started:
 Generation of Intermediates required (CPU/WALL):      0.01/       0.03 seconds.
 Transformation of t(ab,ij) amplitudes required    0.0 seconds.
 Contraction of t(mu nu,ij) with AO integrals required    0.0 seconds.
 Backtransformation of t(mu nu,ij) increments required    0.0 seconds.
 Construction of Hbar required (CPU/WALL):             0.03/       0.06 seconds.
   Frozen core orbitals in analytic derivative calculation
 Amplitude changes are:
 -------------------------------------------------------------------
              Spin      RMS          Max.      Max. change for
  Amplitude   Case     Change       Change       i    j    a    b
 -------------------------------------------------------------------
     T1        AA    0.0000166933 0.0008389418    3         6
     T2        AB    0.0000001565-0.0004847161    4    4   26   26
 -------------------------------------------------------------------
 The total correlation energy is -0.267153101430 a.u.
 Convergence information after     3 iterations: 
 Largest element of residual vector :  0.83894182E-03.
 Largest element of DIIS residual   :  0.76277629E-03.
 Iteration Nr.   3 required (CPU/WALL):                0.04/       0.11 seconds.
 >>>>>>>>>>>>>>>>>>>>>>>>>>>>>>>>>>>>>>>>>>>>>>>>>>>>>>>>>>>>>>>>>>>>>>>>>>>>>>>
 Iteration Nr.   4 started:
 Generation of Intermediates required (CPU/WALL):      0.01/       0.04 seconds.
 Transformation of t(ab,ij) amplitudes required    0.0 seconds.
 Contraction of t(mu nu,ij) with AO integrals required    0.0 seconds.
 Backtransformation of t(mu nu,ij) increments required    0.0 seconds.
 Construction of Hbar required (CPU/WALL):             0.03/       0.06 seconds.
   Frozen core orbitals in analytic derivative calculation
 Amplitude changes are:
 -------------------------------------------------------------------
              Spin      RMS          Max.      Max. change for
  Amplitude   Case     Change       Change       i    j    a    b
 -------------------------------------------------------------------
     T1        AA    0.0000025185 0.0001223001    3         7
     T2        AB    0.0000000337-0.0001164907    3    3    6    6
 -------------------------------------------------------------------
 The total correlation energy is -0.267573228323 a.u.
 Convergence information after     4 iterations: 
 Largest element of residual vector :  0.12230009E-03.
 Largest element of DIIS residual   : -0.92796541E-04.
 Iteration Nr.   4 required (CPU/WALL):                0.05/       0.11 seconds.
 >>>>>>>>>>>>>>>>>>>>>>>>>>>>>>>>>>>>>>>>>>>>>>>>>>>>>>>>>>>>>>>>>>>>>>>>>>>>>>>
 Iteration Nr.   5 started:
 Generation of Intermediates required (CPU/WALL):      0.01/       0.03 seconds.
 Transformation of t(ab,ij) amplitudes required    0.0 seconds.
 Contraction of t(mu nu,ij) with AO integrals required    0.0 seconds.
 Backtransformation of t(mu nu,ij) increments required    0.0 seconds.
 Construction of Hbar required (CPU/WALL):             0.03/       0.06 seconds.
   Frozen core orbitals in analytic derivative calculation
 Amplitude changes are:
 -------------------------------------------------------------------
              Spin      RMS          Max.      Max. change for
  Amplitude   Case     Change       Change       i    j    a    b
 -------------------------------------------------------------------
     T1        AA    0.0000017322 0.0001346852    3         6
     T2        AB    0.0000000080 0.0000244092    5    5    7    7
 -------------------------------------------------------------------
 The total correlation energy is -0.267594536801 a.u.
 Convergence information after     5 iterations: 
 Largest element of residual vector :  0.13468515E-03.
 Largest element of DIIS residual   :  0.86558376E-04.
 Iteration Nr.   5 required (CPU/WALL):                0.05/       0.11 seconds.
 Largest T1 amplitudes for spin case AA:
    i       a                 i       a                 i       a    
 -----------------------------------------------------------------------------
 [  4      26    ]-0.00753 [  5      40    ]-0.00583 [  3       6    ] 0.00576
 [  4      27    ]-0.00486 [  3       9    ]-0.00449 [  3      11    ]-0.00421
 [  2       8    ]-0.00402 [  3       8    ] 0.00389 [  5      45    ]-0.00384
 [  3      17    ]-0.00377 [  4      30    ]-0.00322 [  5      38    ]-0.00286
 [  4      31    ] 0.00275 [  5      36    ] 0.00268 [  5      46    ]-0.00247
 -----------------------------------------------------------------------------
 Norm of T1AA vector (       86 symmetry allowed elements):  0.0185020060.
 -----------------------------------------------------------------------------
 Largest T2 amplitudes for spin case AB:
        _       _                 _       _                 _       _
    i   j   a   b             i   j   a   b             i   j   a   b
 -----------------------------------------------------------------------------
 [  4   4  26  26]-0.04770 [  3   3   8   8]-0.02980 [  5   5  37  37]-0.02695
 [  4   3  26   8] 0.02604 [  3   4   8  26] 0.02604 [  5   5   7   7]-0.02581
 [  5   5  38  38]-0.02264 [  5   4  38  26] 0.02225 [  4   5  26  38] 0.02225
 [  3   3  37  37]-0.02210 [  5   5  36  36]-0.01954 [  5   4  36  26] 0.01929
 [  4   5  26  36] 0.01929 [  5   5  38  36]-0.01917 [  5   5  36  38]-0.01917
 -----------------------------------------------------------------------------
 Norm of T2AB vector (    18479 symmetry allowed elements):  0.2296098549.
 -----------------------------------------------------------------------------
 >>>>>>>>>>>>>>>>>>>>>>>>>>>>>>>>>>>>>>>>>>>>>>>>>>>>>>>>>>>>>>>>>>>>>>>>>>>>>>>
 Iteration Nr.   6 started:
 Generation of Intermediates required (CPU/WALL):      0.01/       0.04 seconds.
 Transformation of t(ab,ij) amplitudes required    0.0 seconds.
 Contraction of t(mu nu,ij) with AO integrals required    0.0 seconds.
 Backtransformation of t(mu nu,ij) increments required    0.0 seconds.
 Construction of Hbar required (CPU/WALL):             0.03/       0.06 seconds.
   Frozen core orbitals in analytic derivative calculation
 Amplitude changes are:
 -------------------------------------------------------------------
              Spin      RMS          Max.      Max. change for
  Amplitude   Case     Change       Change       i    j    a    b
 -------------------------------------------------------------------
     T1        AA    0.0000005781 0.0000431459    3         6
     T2        AB    0.0000000021-0.0000081122    3    3    8    6
 -------------------------------------------------------------------
 The total correlation energy is -0.267595976067 a.u.
 Convergence information after     6 iterations: 
 Largest element of residual vector :  0.43145859E-04.
 Largest element of DIIS residual   :  0.24766488E-04.
 Iteration Nr.   6 required (CPU/WALL):                0.05/       0.11 seconds.
 >>>>>>>>>>>>>>>>>>>>>>>>>>>>>>>>>>>>>>>>>>>>>>>>>>>>>>>>>>>>>>>>>>>>>>>>>>>>>>>
 Iteration Nr.   7 started:
 Generation of Intermediates required (CPU/WALL):      0.01/       0.03 seconds.
 Transformation of t(ab,ij) amplitudes required    0.0 seconds.
 Contraction of t(mu nu,ij) with AO integrals required    0.0 seconds.
 Backtransformation of t(mu nu,ij) increments required    0.0 seconds.
 Construction of Hbar required (CPU/WALL):             0.03/       0.06 seconds.
   Frozen core orbitals in analytic derivative calculation
 Amplitude changes are:
 -------------------------------------------------------------------
              Spin      RMS          Max.      Max. change for
  Amplitude   Case     Change       Change       i    j    a    b
 -------------------------------------------------------------------
     T1        AA    0.0000002841 0.0000227580    3         6
     T2        AB    0.0000000007-0.0000021084    3    3    8    6
 -------------------------------------------------------------------
 The total correlation energy is -0.267596186966 a.u.
 Convergence information after     7 iterations: 
 Largest element of residual vector :  0.22757981E-04.
 Largest element of DIIS residual   :  0.69348307E-05.
 Iteration Nr.   7 required (CPU/WALL):                0.05/       0.11 seconds.
 >>>>>>>>>>>>>>>>>>>>>>>>>>>>>>>>>>>>>>>>>>>>>>>>>>>>>>>>>>>>>>>>>>>>>>>>>>>>>>>
 Iteration Nr.   8 started:
 Generation of Intermediates required (CPU/WALL):      0.01/       0.04 seconds.
 Transformation of t(ab,ij) amplitudes required    0.0 seconds.
 Contraction of t(mu nu,ij) with AO integrals required    0.0 seconds.
 Backtransformation of t(mu nu,ij) increments required    0.0 seconds.
 Construction of Hbar required (CPU/WALL):             0.03/       0.06 seconds.
   Frozen core orbitals in analytic derivative calculation
 Amplitude changes are:
 -------------------------------------------------------------------
              Spin      RMS          Max.      Max. change for
  Amplitude   Case     Change       Change       i    j    a    b
 -------------------------------------------------------------------
     T1        AA    0.0000000572 0.0000044812    3         6
     T2        AB    0.0000000002 0.0000008634    5    5   36   36
 -------------------------------------------------------------------
 The total correlation energy is -0.267596203427 a.u.
 Convergence information after     8 iterations: 
 Largest element of residual vector :  0.44811658E-05.
 Largest element of DIIS residual   :  0.12799857E-05.
 Iteration Nr.   8 required (CPU/WALL):                0.05/       0.11 seconds.
 >>>>>>>>>>>>>>>>>>>>>>>>>>>>>>>>>>>>>>>>>>>>>>>>>>>>>>>>>>>>>>>>>>>>>>>>>>>>>>>
 Iteration Nr.   9 started:
 Generation of Intermediates required (CPU/WALL):      0.01/       0.04 seconds.
 Transformation of t(ab,ij) amplitudes required    0.0 seconds.
 Contraction of t(mu nu,ij) with AO integrals required    0.0 seconds.
 Backtransformation of t(mu nu,ij) increments required    0.0 seconds.
 Construction of Hbar required (CPU/WALL):             0.03/       0.06 seconds.
   Frozen core orbitals in analytic derivative calculation
 Amplitude changes are:
 -------------------------------------------------------------------
              Spin      RMS          Max.      Max. change for
  Amplitude   Case     Change       Change       i    j    a    b
 -------------------------------------------------------------------
     T1        AA    0.0000000113 0.0000008501    3         6
     T2        AB    0.0000000001-0.0000002836    5    5    6    6
 -------------------------------------------------------------------
 The total correlation energy is -0.267596272691 a.u.
 Convergence information after     9 iterations: 
 Largest element of residual vector :  0.85009001E-06.
 Largest element of DIIS residual   : -0.26517581E-06.
 Iteration Nr.   9 required (CPU/WALL):                0.05/       0.11 seconds.
 >>>>>>>>>>>>>>>>>>>>>>>>>>>>>>>>>>>>>>>>>>>>>>>>>>>>>>>>>>>>>>>>>>>>>>>>>>>>>>>
 Iteration Nr.  10 started:
 Generation of Intermediates required (CPU/WALL):      0.01/       0.03 seconds.
 Transformation of t(ab,ij) amplitudes required    0.0 seconds.
 Contraction of t(mu nu,ij) with AO integrals required    0.0 seconds.
 Backtransformation of t(mu nu,ij) increments required    0.0 seconds.
 Construction of Hbar required (CPU/WALL):             0.03/       0.06 seconds.
   Frozen core orbitals in analytic derivative calculation
 Amplitude changes are:
 -------------------------------------------------------------------
              Spin      RMS          Max.      Max. change for
  Amplitude   Case     Change       Change       i    j    a    b
 -------------------------------------------------------------------
     T1        AA    0.0000000039 0.0000002945    3         6
     T2        AB    0.0000000000-0.0000000664    5    5    6    6
 -------------------------------------------------------------------
 The total correlation energy is -0.267596241655 a.u.
 Convergence information after    10 iterations: 
 Largest element of residual vector :  0.29449353E-06.
 Largest element of DIIS residual   :  0.77295337E-07.
 Iteration Nr.  10 required (CPU/WALL):                0.05/       0.11 seconds.
 Largest T1 amplitudes for spin case AA:
    i       a                 i       a                 i       a    
 -----------------------------------------------------------------------------
 [  4      26    ]-0.00752 [  3       6    ] 0.00587 [  5      40    ]-0.00583
 [  4      27    ]-0.00485 [  3       9    ]-0.00449 [  3      11    ]-0.00420
 [  2       8    ]-0.00402 [  3       8    ] 0.00389 [  5      45    ]-0.00384
 [  3      17    ]-0.00377 [  4      30    ]-0.00322 [  5      38    ]-0.00287
 [  4      31    ] 0.00275 [  5      36    ] 0.00266 [  5      46    ]-0.00247
 -----------------------------------------------------------------------------
 Norm of T1AA vector (       86 symmetry allowed elements):  0.0185301838.
 -----------------------------------------------------------------------------
 Largest T2 amplitudes for spin case AB:
        _       _                 _       _                 _       _
    i   j   a   b             i   j   a   b             i   j   a   b
 -----------------------------------------------------------------------------
 [  4   4  26  26]-0.04770 [  3   3   8   8]-0.02980 [  5   5  37  37]-0.02695
 [  4   3  26   8] 0.02604 [  3   4   8  26] 0.02604 [  5   5   7   7]-0.02580
 [  5   5  38  38]-0.02264 [  5   4  38  26] 0.02225 [  4   5  26  38] 0.02225
 [  3   3  37  37]-0.02210 [  5   5  36  36]-0.01954 [  5   4  36  26] 0.01929
 [  4   5  26  36] 0.01929 [  5   5  38  36]-0.01917 [  5   5  36  38]-0.01917
 -----------------------------------------------------------------------------
 Norm of T2AB vector (    18479 symmetry allowed elements):  0.2296070456.
 -----------------------------------------------------------------------------
 >>>>>>>>>>>>>>>>>>>>>>>>>>>>>>>>>>>>>>>>>>>>>>>>>>>>>>>>>>>>>>>>>>>>>>>>>>>>>>>
 Iteration Nr.  11 started:
 Generation of Intermediates required (CPU/WALL):      0.01/       0.04 seconds.
 Transformation of t(ab,ij) amplitudes required    0.0 seconds.
 Contraction of t(mu nu,ij) with AO integrals required    0.0 seconds.
 Backtransformation of t(mu nu,ij) increments required    0.0 seconds.
 Construction of Hbar required (CPU/WALL):             0.03/       0.06 seconds.
   Frozen core orbitals in analytic derivative calculation
 Amplitude changes are:
 -------------------------------------------------------------------
              Spin      RMS          Max.      Max. change for
  Amplitude   Case     Change       Change       i    j    a    b
 -------------------------------------------------------------------
     T1        AA    0.0000000004-0.0000000195    3         6
     T2        AB    0.0000000000-0.0000000218    5    5    6    6
 -------------------------------------------------------------------
 The total correlation energy is -0.267596245025 a.u.
 Convergence information after    11 iterations: 
 Largest element of residual vector : -0.21777876E-07.
 Largest element of DIIS residual   :  0.23398059E-07.
 Iteration Nr.  11 required (CPU/WALL):                0.05/       0.11 seconds.
 >>>>>>>>>>>>>>>>>>>>>>>>>>>>>>>>>>>>>>>>>>>>>>>>>>>>>>>>>>>>>>>>>>>>>>>>>>>>>>>
 Iteration Nr.  12 started:
 Generation of Intermediates required (CPU/WALL):      0.01/       0.03 seconds.
 Transformation of t(ab,ij) amplitudes required    0.0 seconds.
 Contraction of t(mu nu,ij) with AO integrals required    0.0 seconds.
 Backtransformation of t(mu nu,ij) increments required    0.0 seconds.
 Construction of Hbar required (CPU/WALL):             0.03/       0.06 seconds.
   Frozen core orbitals in analytic derivative calculation
 Amplitude changes are:
 -------------------------------------------------------------------
              Spin      RMS          Max.      Max. change for
  Amplitude   Case     Change       Change       i    j    a    b
 -------------------------------------------------------------------
     T1        AA    0.0000000003 0.0000000197    3         6
     T2        AB    0.0000000000 0.0000000044    3    3    6    6
 -------------------------------------------------------------------
 The total correlation energy is -0.267596245229 a.u.
 Convergence information after    12 iterations: 
 Largest element of residual vector :  0.19722718E-07.
 Largest element of DIIS residual   :  0.75548314E-08.
 Iteration Nr.  12 required (CPU/WALL):                0.05/       0.11 seconds.
 >>>>>>>>>>>>>>>>>>>>>>>>>>>>>>>>>>>>>>>>>>>>>>>>>>>>>>>>>>>>>>>>>>>>>>>>>>>>>>>
 Iteration Nr.  13 started:
 Generation of Intermediates required (CPU/WALL):      0.01/       0.03 seconds.
 Transformation of t(ab,ij) amplitudes required    0.0 seconds.
 Contraction of t(mu nu,ij) with AO integrals required    0.0 seconds.
 Backtransformation of t(mu nu,ij) increments required    0.0 seconds.
 Construction of Hbar required (CPU/WALL):             0.03/       0.06 seconds.
   Frozen core orbitals in analytic derivative calculation
 Amplitude changes are:
 -------------------------------------------------------------------
              Spin      RMS          Max.      Max. change for
  Amplitude   Case     Change       Change       i    j    a    b
 -------------------------------------------------------------------
     T1        AA    0.0000000001 0.0000000037    3         6
     T2        AB    0.0000000000 0.0000000011    4    3    6   26
 -------------------------------------------------------------------
 The total correlation energy is -0.267596245040 a.u.
 Convergence information after    13 iterations: 
 Largest element of residual vector :  0.37338567E-08.
 Largest element of DIIS residual   :  0.18058507E-08.
 Iteration Nr.  13 required (CPU/WALL):                0.05/       0.11 seconds.
 >>>>>>>>>>>>>>>>>>>>>>>>>>>>>>>>>>>>>>>>>>>>>>>>>>>>>>>>>>>>>>>>>>>>>>>>>>>>>>>
 Iteration Nr.  14 started:
 Generation of Intermediates required (CPU/WALL):      0.01/       0.04 seconds.
 Transformation of t(ab,ij) amplitudes required    0.0 seconds.
 Contraction of t(mu nu,ij) with AO integrals required    0.0 seconds.
 Backtransformation of t(mu nu,ij) increments required    0.0 seconds.
 Construction of Hbar required (CPU/WALL):             0.03/       0.06 seconds.
   Frozen core orbitals in analytic derivative calculation
 Amplitude changes are:
 -------------------------------------------------------------------
              Spin      RMS          Max.      Max. change for
  Amplitude   Case     Change       Change       i    j    a    b
 -------------------------------------------------------------------
     T1        AA    0.0000000000 0.0000000026    3         6
     T2        AB    0.0000000000 0.0000000003    5    5    6    6
 -------------------------------------------------------------------
 The total correlation energy is -0.267596245105 a.u.
 Convergence information after    14 iterations: 
 Largest element of residual vector :  0.25954290E-08.
 Largest element of DIIS residual   :  0.65184878E-09.
 Iteration Nr.  14 required (CPU/WALL):                0.05/       0.11 seconds.
 >>>>>>>>>>>>>>>>>>>>>>>>>>>>>>>>>>>>>>>>>>>>>>>>>>>>>>>>>>>>>>>>>>>>>>>>>>>>>>>
 Iteration Nr.  15 started:
 Generation of Intermediates required (CPU/WALL):      0.01/       0.03 seconds.
 Transformation of t(ab,ij) amplitudes required    0.0 seconds.
 Contraction of t(mu nu,ij) with AO integrals required    0.0 seconds.
 Backtransformation of t(mu nu,ij) increments required    0.0 seconds.
 Construction of Hbar required (CPU/WALL):             0.03/       0.06 seconds.
   Frozen core orbitals in analytic derivative calculation
 Amplitude changes are:
 -------------------------------------------------------------------
              Spin      RMS          Max.      Max. change for
  Amplitude   Case     Change       Change       i    j    a    b
 -------------------------------------------------------------------
     T1        AA    0.0000000000 0.0000000006    3         6
     T2        AB    0.0000000000 0.0000000001    5    5    6    6
 -------------------------------------------------------------------
 The total correlation energy is -0.267596245077 a.u.
 Convergence information after    15 iterations: 
 Largest element of residual vector :  0.61603100E-09.
 Largest element of DIIS residual   :  0.13327143E-09.
 Iteration Nr.  15 required (CPU/WALL):                0.05/       0.11 seconds.
 Largest T1 amplitudes for spin case AA:
    i       a                 i       a                 i       a    
 -----------------------------------------------------------------------------
 [  4      26    ]-0.00752 [  3       6    ] 0.00587 [  5      40    ]-0.00583
 [  4      27    ]-0.00485 [  3       9    ]-0.00449 [  3      11    ]-0.00420
 [  2       8    ]-0.00402 [  3       8    ] 0.00389 [  5      45    ]-0.00384
 [  3      17    ]-0.00377 [  4      30    ]-0.00322 [  5      38    ]-0.00287
 [  4      31    ] 0.00275 [  5      36    ] 0.00266 [  5      46    ]-0.00247
 -----------------------------------------------------------------------------
 Norm of T1AA vector (       86 symmetry allowed elements):  0.0185301782.
 -----------------------------------------------------------------------------
 Largest T2 amplitudes for spin case AB:
        _       _                 _       _                 _       _
    i   j   a   b             i   j   a   b             i   j   a   b
 -----------------------------------------------------------------------------
 [  4   4  26  26]-0.04770 [  3   3   8   8]-0.02980 [  5   5  37  37]-0.02695
 [  4   3  26   8] 0.02604 [  3   4   8  26] 0.02604 [  5   5   7   7]-0.02580
 [  5   5  38  38]-0.02264 [  5   4  38  26] 0.02225 [  4   5  26  38] 0.02225
 [  3   3  37  37]-0.02210 [  5   5  36  36]-0.01954 [  5   4  36  26] 0.01929
 [  4   5  26  36] 0.01929 [  5   5  38  36]-0.01917 [  5   5  36  38]-0.01917
 -----------------------------------------------------------------------------
 Norm of T2AB vector (    18479 symmetry allowed elements):  0.2296070703.
 -----------------------------------------------------------------------------
 >>>>>>>>>>>>>>>>>>>>>>>>>>>>>>>>>>>>>>>>>>>>>>>>>>>>>>>>>>>>>>>>>>>>>>>>>>>>>>>
 Iteration Nr.  16 started:
 Generation of Intermediates required (CPU/WALL):      0.01/       0.03 seconds.
 Transformation of t(ab,ij) amplitudes required    0.0 seconds.
 Contraction of t(mu nu,ij) with AO integrals required    0.0 seconds.
 Backtransformation of t(mu nu,ij) increments required    0.0 seconds.
 Construction of Hbar required (CPU/WALL):             0.03/       0.06 seconds.
   Frozen core orbitals in analytic derivative calculation
 Amplitude changes are:
 -------------------------------------------------------------------
              Spin      RMS          Max.      Max. change for
  Amplitude   Case     Change       Change       i    j    a    b
 -------------------------------------------------------------------
     T1        AA    0.0000000000 0.0000000001    3         6
     T2        AB    0.0000000000-0.0000000000    3    3    6    6
 -------------------------------------------------------------------
 The total correlation energy is -0.267596245086 a.u.
 Convergence information after    16 iterations: 
 Largest element of residual vector :  0.10891761E-09.
 Largest element of DIIS residual   : -0.34435915E-10.
 Iteration Nr.  16 required (CPU/WALL):                0.05/       0.11 seconds.
 >>>>>>>>>>>>>>>>>>>>>>>>>>>>>>>>>>>>>>>>>>>>>>>>>>>>>>>>>>>>>>>>>>>>>>>>>>>>>>>
 Iteration Nr.  17 started:
 Generation of Intermediates required (CPU/WALL):      0.01/       0.04 seconds.
 Transformation of t(ab,ij) amplitudes required    0.0 seconds.
 Contraction of t(mu nu,ij) with AO integrals required    0.0 seconds.
 Backtransformation of t(mu nu,ij) increments required    0.0 seconds.
 Construction of Hbar required (CPU/WALL):             0.03/       0.06 seconds.
   Frozen core orbitals in analytic derivative calculation
 Amplitude changes are:
 -------------------------------------------------------------------
              Spin      RMS          Max.      Max. change for
  Amplitude   Case     Change       Change       i    j    a    b
 -------------------------------------------------------------------
     T1        AA    0.0000000000 0.0000000000    3         6
     T2        AB    0.0000000000-0.0000000000    4    4   26   26
 -------------------------------------------------------------------
 The total correlation energy is -0.267596245089 a.u.
 Convergence information after    17 iterations: 
 Largest element of residual vector :  0.26687070E-10.
 Largest element of DIIS residual   :  0.75165051E-11.
 Amplitude equations converged in    17 iterations.
 Iteration Nr.  17 required (CPU/WALL):                0.05/       0.11 seconds.
 The total correlation energy is -0.267596245091 a.u.
 
 Summary of iterative solution of CC equations:
 -----------------------------------------------------------
                 Correlation           Total
  Iteration        Energy              Energy
 -----------------------------------------------------------
      0     -0.2617001467988804   -76.318590161840   DIIS 
      1     -0.2620180765946684   -76.318908091636   DIIS 
      2     -0.2667718148333180   -76.323661829875   DIIS 
      3     -0.2671531014295061   -76.324043116471   DIIS 
      4     -0.2675732283227515   -76.324463243364   DIIS 
      5     -0.2675945368005518   -76.324484551842   DIIS 
      6     -0.2675959760673335   -76.324485991109   DIIS 
      7     -0.2675961869662862   -76.324486202008   DIIS 
      8     -0.2675962034266391   -76.324486218468   DIIS 
      9     -0.2675962726906376   -76.324486287732   DIIS 
     10     -0.2675962416554978   -76.324486256697   DIIS 
     11     -0.2675962450247084   -76.324486260066   DIIS 
     12     -0.2675962452289223   -76.324486260270   DIIS 
     13     -0.2675962450397424   -76.324486260081   DIIS 
     14     -0.2675962451051169   -76.324486260147   DIIS 
     15     -0.2675962450767964   -76.324486260118   DIIS 
     16     -0.2675962450862077   -76.324486260128   DIIS 
     17     -0.2675962450907494   -76.324486260132   DIIS 
 -----------------------------------------------------------
 A miracle come to pass. The CC iterations have converged.
 
 Non-iterative perturbative treatment of triple
 excitations using the CCSD(T) method ...
 ... required                        (CPU/WALL):       0.00/       0.71 seconds.
--------------------------------------------------------------------------------
  HF-SCF energy                            -76.056890015041
  MP2 correlation energy                    -0.261700146799
  MP2 energy                               -76.318590161840
  CCSD correlation energy                   -0.267596245091
  CCSD energy                              -76.324486260132
--------------------------------------------------------------------------------
  CCSD(T) energy                           -76.332156483408
--------------------------------------------------------------------------------
 @CHECKOUT-I, Total execution time (CPU/WALL):        1.13/       2.71 seconds.
--executable xecc finished with status     0 in        2.72 seconds (walltime).
 --invoking executable--
/home/orgChemistry/bin/cfour_v21/bin/xlcc
 @GETMEM-I,  Allocated    4768 MB of main memory.
 Lambda equations are solved for CCSD(T)
 AO based algorithm is used. 
 The total correlation energy is -0.267630960553 a.u.
 Starting iterative solution of the Lambda equations.
 The DIIS procedure is used to accelerate convergence.
 5 expansion vectors are used in the DIIS extrapolation.
 Convergence criterium is 10**(-10).
 Maximum number of iterations is 100.
   Frozen core orbitals in analytic derivative calculation
 The total correlation energy is -0.278679215720 a.u.
 Convergence information after     1 iterations: 
 Largest element of residual vector : -0.38270887E-02.
 Largest element of DIIS residual   : -0.38270887E-02.
   Frozen core orbitals in analytic derivative calculation
 The total correlation energy is -0.277084185317 a.u.
 Convergence information after     2 iterations: 
 Largest element of residual vector :  0.11806162E-02.
 Largest element of DIIS residual   :  0.80851831E-03.
   Frozen core orbitals in analytic derivative calculation
 The total correlation energy is -0.277330158974 a.u.
 Convergence information after     3 iterations: 
 Largest element of residual vector :  0.20218466E-03.
 Largest element of DIIS residual   :  0.15879536E-03.
   Frozen core orbitals in analytic derivative calculation
 The total correlation energy is -0.277330796373 a.u.
 Convergence information after     4 iterations: 
 Largest element of residual vector :  0.17738838E-03.
 Largest element of DIIS residual   :  0.13473912E-03.
   Frozen core orbitals in analytic derivative calculation
 The total correlation energy is -0.277332758906 a.u.
 Convergence information after     5 iterations: 
 Largest element of residual vector :  0.61264021E-04.
 Largest element of DIIS residual   :  0.27886833E-04.
   Frozen core orbitals in analytic derivative calculation
 The total correlation energy is -0.277334784373 a.u.
 Convergence information after     6 iterations: 
 Largest element of residual vector :  0.22144380E-04.
 Largest element of DIIS residual   :  0.93525839E-05.
   Frozen core orbitals in analytic derivative calculation
 The total correlation energy is -0.277334490504 a.u.
 Convergence information after     7 iterations: 
 Largest element of residual vector :  0.44384602E-05.
 Largest element of DIIS residual   :  0.97901918E-06.
   Frozen core orbitals in analytic derivative calculation
 The total correlation energy is -0.277334422910 a.u.
 Convergence information after     8 iterations: 
 Largest element of residual vector :  0.74571125E-06.
 Largest element of DIIS residual   : -0.54376660E-06.
   Frozen core orbitals in analytic derivative calculation
 The total correlation energy is -0.277334388074 a.u.
 Convergence information after     9 iterations: 
 Largest element of residual vector :  0.12850546E-06.
 Largest element of DIIS residual   : -0.80853226E-07.
   Frozen core orbitals in analytic derivative calculation
 The total correlation energy is -0.277334397893 a.u.
 Convergence information after    10 iterations: 
 Largest element of residual vector : -0.46576118E-07.
 Largest element of DIIS residual   : -0.21430540E-07.
[...]
  R23       -0.230085  0.769915  0.033085
  A123       0.033085  0.033085  0.166089
   The eigenvectors of the Hessian matrix: 
                   1         2         3
  R12        0.086522  0.701793  0.707107
  R23        0.086522  0.701793 -0.707107
  A123      -0.992486  0.122361 -0.000000
   The eigenvalues of the Hessian matrix: 
     0.16032    0.54560    1.00000
   Gradients along Hessian eigenvectors: 
    -0.00000    0.00000    0.00000
   There are  0 negative eigenvalues.
   Summary of Optimization Cycle: 
   The maximum unscaled step is:    0.00000.
   Scale factor set to:  1.00000.
   Forces are in hartree/bohr and hartree/radian.
   Parameter values are in Angstroms and degrees.
--------------------------------------------------------------------------
  Parameter     dV/dR           Step          Rold            Rnew
--------------------------------------------------------------------------
    R12     0.0000000046   -0.0000000030    0.9594261146    0.9594261116
    R23     0.0000000046   -0.0000000030    0.9594261146    0.9594261116
    A123    0.0000000080   -0.0000026454  103.5821672773  103.5821646319
--------------------------------------------------------------------------
  Minimum force:  0.000000005 / RMS force:  0.000000006
--------------------------------------------------------------------------------
   RMS gradient is below .10000E-07.
   Convergence criterion satisfied.  Optimization completed.
--------------------------------------------------------------------------------
   Interatomic distance matrix (Angstroms) 
 
                 H             O             H    
                [ 1]        [ 2]        [ 3]
  H    [ 1]     0.00000
  O    [ 2]     0.95943     0.00000
  H    [ 3]     1.50776     0.95943     0.00000
 @EFOL-I, Writing out completion flag to disk
 
********************************************************************************
*                          Final ZMATnew file                                  *
********************************************************************************
title                                                                           
H                                                                               
O 1 R12*                                                                        
H 2 R23* 1 A123*                                                                
                                                                                
R12  =        0.959426111555796                                                 
R23  =        0.959426111555797                                                 
A123 =      103.582164631913770                                                 
                                                                                
*CFOUR(CALC=CCSD(T),BASIS=cc-pVTZ,FROZEN_CORE=1                                 
       CONVERGENCE=8                                                            
       MEMORY_SIZE=5000,MEM_UNIT=MB,ABCDTYPE=AOBASIS,CC_PROG=ECC                
       MULTIPLICITY=1,CHARGE=0                                                  
       SCF_CONV=8,CC_CONV=10)                                                   
                                                                                
********************************************************************************
--executable xjoda finished with status     0 in        0.04 seconds (walltime).
 --invoking executable--
/home/orgChemistry/bin/cfour_v21/bin/xvprop
 @GETMEM-I,  Allocated    4768 MB of main memory.
   Property integrals will be calculated.
    --------------------------------------------------------------
                                   Property evaluated at 
    Property type                X             Y             Z
    --------------------------------------------------------------
    Dipole moment               ----          ----          ----  
    Quadrupole moment           ----          ----          ----  
    Octopole moment             ----          ----          ----  
    Relativisitic corr.         ----          ----          ----  
    Second moment            0.0000000     0.0000000     0.0000000
    Electron density         0.0000000    -1.4246254     0.9959241
    Electron density         0.0000000     1.4246254     0.9959241
    Electron density         0.0000000     0.0000000    -0.1255045
    Field gradient           0.0000000    -1.4246254     0.9959241
    Field gradient           0.0000000     1.4246254     0.9959241
    Field gradient           0.0000000     0.0000000    -0.1255045
    Potential                0.0000000    -1.4246254     0.9959241
    Potential                0.0000000     1.4246254     0.9959241
    Potential                0.0000000     0.0000000    -0.1255045
    --------------------------------------------------------------
 @CHECKOUT-I, Total execution time (CPU/WALL):        0.14/       0.23 seconds.
--executable xvprop finished with status     0 in        0.23 seconds (walltime).
 --invoking executable--
/home/orgChemistry/bin/cfour_v21/bin/xprops
  occupation vector                      3
  @DRVPRP-I, Properties computed from the SCF density matrix follow.
   Components of electric dipole moment 
        X =    0.0000000000   Y =   -0.0000000000   Z =    0.8032164096
   Components of second moment 
       XX =    5.4263583758  YY =    7.1775754393  ZZ =    6.4335649284
       XY =    0.0000000000  XZ =    0.0000000000  YZ =    0.0000000000
   Components of electric quadrupole moment 
       XX =   -1.7052160942  YY =    1.7566307808  ZZ =   -0.0514146866
       XY =    0.0000000000  XZ =    0.0000000000  YZ =   -0.0000000000
   Components of electric octopole moment 
      XXX =    0.0000000000 YYY =   -0.0000000000 ZZZ =   -1.8384517171
      XXY =   -0.0000000000 XXZ =   -1.2946531594 XYY =    0.0000000000
      YYZ =    3.1331048765 XZZ =    0.0000000000 YZZ =    0.0000000000
      XYZ =    0.0000000000
  Relativistic correction to the energy 
      Darwin =    0.1998834117 p**4   =   -0.2514636772 Total  =   -0.0515802655
   Charge densities at atomic centers 
          Z-matrix                               Charge
           center                               Density
              1                              0.4076840814
              3                              0.4076840814
              2                            298.5989504923
   Electric field gradient at atomic centers 
                             Z-matrix center   1:
  Atomic charge is                      1
       XX =   -0.2748549526  YY =    0.2332050155  ZZ =    0.0416499372
       XY =    0.0000000000  XZ =    0.0000000000  YZ =   -0.3372502295
                          In kHz, Mass number   2
                          CHIxx =      -184.70230
                          CHIyy =       156.71357
                          CHIzz =        27.98872
                          CHIxy =         0.00000
                          CHIxz =         0.00000
                          CHIyz =      -226.63187
                             Z-matrix center   3:
  Atomic charge is                      1
       XX =   -0.2748549526  YY =    0.2332050155  ZZ =    0.0416499372
       XY =    0.0000000000  XZ =    0.0000000000  YZ =    0.3372502295
                          In kHz, Mass number   2
                          CHIxx =      -184.70230
                          CHIyy =       156.71357
                          CHIzz =        27.98872
                          CHIxy =         0.00000
                          CHIxz =         0.00000
                          CHIyz =       226.63187
                             Z-matrix center   2:
  Atomic charge is                      8
       XX =   -1.8861883289  YY =    1.6717937284  ZZ =    0.2143946006
       XY =    0.0000000000  XZ =    0.0000000000  YZ =    0.0000000000
   Electrostatic potential at atomic centers 
          Z-matrix                             Potential
           center                               [<1/r>]
              1                             -1.0094831719
              3                             -1.0094831719
              2                            -22.3388486630
  @DRVPRP-I, Properties computed from the correlated density matrix follow.
   Components of electric dipole moment 
        X =    0.0000000000   Y =   -0.0000000000   Z =    0.7534307099
   Components of second moment 
       XX =    5.4741692475  YY =    7.2868421220  ZZ =    6.5202842116
       XY =    0.0000000000  XZ =    0.0000000000  YZ =    0.0000000000
   Components of electric quadrupole moment 
       XX =   -1.6550339830  YY =    1.7146291755  ZZ =   -0.0595951925
       XY =    0.0000000000  XZ =    0.0000000000  YZ =   -0.0000000000
   Components of electric octopole moment 
      XXX =    0.0000000000 YYY =   -0.0000000000 ZZZ =   -1.7360353460
      XXY =   -0.0000000000 XXZ =   -1.2084604609 XYY =    0.0000000000
      YYZ =    2.9444958069 XZZ =    0.0000000000 YZZ =    0.0000000000
      XYZ =    0.0000000000
  Relativistic correction to the energy 
      Darwin =    0.1999823795 p**4   =   -0.2517719447 Total  =   -0.0517895652
   Charge densities at atomic centers 
          Z-matrix                               Charge
           center                               Density
              1                              0.4143709108
              3                              0.4143709108
              2                            298.7451738951
   Electric field gradient at atomic centers 
                             Z-matrix center   1:
  Atomic charge is                      1
       XX =   -0.2811118364  YY =    0.2402760512  ZZ =    0.0408357852
       XY =    0.0000000000  XZ =    0.0000000000  YZ =   -0.3462968390
                          In kHz, Mass number   2
                          CHIxx =      -188.90692
                          CHIyy =       161.46530
                          CHIzz =        27.44161
                          CHIxy =         0.00000
                          CHIxz =         0.00000
                          CHIyz =      -232.71118
                             Z-matrix center   3:
  Atomic charge is                      1
       XX =   -0.2811118364  YY =    0.2402760512  ZZ =    0.0408357852
       XY =    0.0000000000  XZ =    0.0000000000  YZ =    0.3462968390
                          In kHz, Mass number   2
                          CHIxx =      -188.90692
                          CHIyy =       161.46530
                          CHIzz =        27.44161
                          CHIxy =         0.00000
                          CHIxz =         0.00000
                          CHIyz =       232.71118
                             Z-matrix center   2:
  Atomic charge is                      8
       XX =   -1.7830759405  YY =    1.5544826978  ZZ =    0.2285932428
       XY =    0.0000000000  XZ =    0.0000000000  YZ =    0.0000000000
   Electrostatic potential at atomic centers 
          Z-matrix                             Potential
           center                               [<1/r>]
              1                             -1.0082094231
              3                             -1.0082094231
              2                            -22.3544765416
 
  Mulliken population analysis of SCF density.
   Total density is analyzed.
 
  Population analysis by orbitals.
 -------------------------------------------------------
     Z-matrix
      Center          Function          Population
 -------------------------------------------------------
         1                S              1.17122978
         3                S              1.17122978
         1                S             -0.24272062
         3                S             -0.24272062
         1                S             -0.25774360
         3                S             -0.25774360
         1                P              0.00421912
         3                P              0.00421912
         1                P              0.03009829
         3                P              0.03009829
         1                P              0.00876230
         3                P              0.00876230
         1                P              0.01020182
         3                P              0.01020182
         1                P              0.00690331
         3                P              0.00690331
         1                P              0.02113597
         3                P              0.02113597
         1                D              0.00036011
         3                D              0.00036011
         1                D              0.00196080
         3                D              0.00196080
         1                D              0.00103100
         3                D              0.00103100
         1                D              0.00098779
         3                D              0.00098779
         1                D              0.00185388
         3                D              0.00185388
         1                D              0.00086177
         3                D              0.00086177
         2                S              1.99862918
         2                S              1.81394039
         2                S             -0.00546782
         2                S             -0.02630361
         2                P              1.83846226
         2                P             -0.01653845
         2                P              0.10144406
         2                P              1.37489248
         2                P             -0.03235753
         2                P             -0.13701526
         2                P              1.57776895
         2                P             -0.02322087
         2                P             -0.00295329
         2                D              0.00039335
         2                D              0.00254548
         2                D              0.00000000
         2                D              0.00000000
         2                D              0.00022837
         2                D              0.00165906
         2                D              0.00007542
         2                D              0.00016498
         2                D              0.00220868
         2                D              0.01062391
         2                D              0.00019671
         2                D              0.00144008
         2                F              0.00004678
         2                F              0.00023958
         2                F              0.00017891
         2                F              0.00006535
         2                F              0.00000000
         2                F              0.00001415
         2                F              0.00001873
         2                F              0.00031681
         2                F              0.00001552
         2                F              0.00000423
 -------------------------------------------------------
  Population analysis by atoms (atomic charges).
 -------------------------------------------------------
     Z-matrix
      Center          Function          Population
 -------------------------------------------------------
         1                               0.75914171
         3                               0.75914171
         2                               8.48171657
 -------------------------------------------------------
 
  Mulliken population analysis of CCSD(T) density.
   Total density is analyzed.
 
  Population analysis by orbitals.
 -------------------------------------------------------
     Z-matrix
      Center          Function          Population
 -------------------------------------------------------
         1                S              1.18104983
         3                S              1.18104983
         1                S             -0.24854029
         3                S             -0.24854029
         1                S             -0.25672645
         3                S             -0.25672645
         1                P              0.00470214
         3                P              0.00470214
         1                P              0.03564535
         3                P              0.03564535
         1                P              0.00844542
         3                P              0.00844542
         1                P              0.00895247
         3                P              0.00895247
         1                P              0.00694381
         3                P              0.00694381
         1                P              0.02392907
         3                P              0.02392907
         1                D              0.00039116
         3                D              0.00039116
         1                D              0.00196914
         3                D              0.00196914
         1                D              0.00104609
         3                D              0.00104609
         1                D              0.00098789
         3                D              0.00098789
         1                D              0.00169074
         3                D              0.00169074
         1                D              0.00088583
         3                D              0.00088583
         2                S              1.99802033
         2                S              1.79383793
         2                S              0.00345975
         2                S             -0.02018868
         2                P              1.82266279
         2                P             -0.04085332
         2                P              0.11782897
         2                P              1.39100761
         2                P             -0.04779800
         2                P             -0.14587236
         2                P              1.57384584
         2                P             -0.04202590
         2                P              0.00148081
         2                D              0.00162551
         2                D              0.00526008
         2                D              0.00181721
         2                D              0.00439594
         2                D              0.00206793
         2                D              0.00608555
         2                D              0.00121179
         2                D              0.00292135
         2                D              0.00374101
         2                D              0.01340727
         2                D              0.00136376
         2                D              0.00411512
         2                F              0.00021266
         2                F              0.00057773
         2                F              0.00051728
         2                F              0.00038926
         2                F              0.00041785
         2                F              0.00035239
         2                F              0.00018441
         2                F              0.00065456
         2                F              0.00035973
         2                F              0.00017147
 -------------------------------------------------------
  Population analysis by atoms (atomic charges).
 -------------------------------------------------------
     Z-matrix
      Center          Function          Population
 -------------------------------------------------------
         1                               0.77137219
         3                               0.77137219
         2                               8.45725562
 -------------------------------------------------------
 @CHECKOUT-I, Total execution time (CPU/WALL):        0.03/       0.10 seconds.
--executable xprops finished with status     0 in        0.11 seconds (walltime).
  The final electronic energy is       -76.332216518896146 a.u. 
  This computation required                           42.70 seconds (walltime).

real	0m42.704s
user	0m9.899s
sys	0m8.847s
