 Entering Gaussian System, Link 0=/home/orgChemistry/bin/gaussian16-C.01/g16/g16
 Initial command:
 /home/orgChemistry/bin/gaussian16-C.01/g16/l1.exe "/scratch/agSchreiner/ruthm/139846/gaussian_iso3_HCNO_c.iso3_HCNO_c_b3lyp_6311_G_3df_3dp/Gau-36550.inp" -scrdir="/scratch/agSchreiner/ruthm/139846/gaussian_iso3_HCNO_c.iso3_HCNO_c_b3lyp_6311_G_3df_3dp/"
 Entering Link 1 = /home/orgChemistry/bin/gaussian16-C.01/g16/l1.exe PID=     36556.
  
 Copyright (c) 1988-2019, Gaussian, Inc.  All Rights Reserved.
  
 This is part of the Gaussian(R) 16 program.  It is based on
 the Gaussian(R) 09 system (copyright 2009, Gaussian, Inc.),
 the Gaussian(R) 03 system (copyright 2003, Gaussian, Inc.),
 the Gaussian(R) 98 system (copyright 1998, Gaussian, Inc.),
 the Gaussian(R) 94 system (copyright 1995, Gaussian, Inc.),
 the Gaussian 92(TM) system (copyright 1992, Gaussian, Inc.),
 the Gaussian 90(TM) system (copyright 1990, Gaussian, Inc.),
 the Gaussian 88(TM) system (copyright 1988, Gaussian, Inc.),
 the Gaussian 86(TM) system (copyright 1986, Carnegie Mellon
 University), and the Gaussian 82(TM) system (copyright 1983,
 Carnegie Mellon University). Gaussian is a federally registered
 trademark of Gaussian, Inc.
  
 This software contains proprietary and confidential information,
 including trade secrets, belonging to Gaussian, Inc.
  
 This software is provided under written license and may be
 used, copied, transmitted, or stored only in accord with that
 written license.
  
 The following legend is applicable only to US Government
 contracts under FAR:
  
                    RESTRICTED RIGHTS LEGEND
  
 Use, reproduction and disclosure by the US Government is
 subject to restrictions as set forth in subparagraphs (a)
 and (c) of the Commercial Computer Software - Restricted
 Rights clause in FAR 52.227-19.
  
 Gaussian, Inc.
 340 Quinnipiac St., Bldg. 40, Wallingford CT 06492
  
  
 ---------------------------------------------------------------
 Warning -- This program may not be used in any manner that
 competes with the business of Gaussian, Inc. or will provide
 assistance to any competitor of Gaussian, Inc.  The licensee
 of this program is prohibited from giving any competitor of
 Gaussian, Inc. access to this program.  By using this program,
 the user acknowledges that Gaussian, Inc. is engaged in the
 business of creating and licensing software in the field of
 computational chemistry and represents and warrants to the
 licensee that it is not a competitor of Gaussian, Inc. and that
 it will not use this program in any manner prohibited above.
 ---------------------------------------------------------------
  

 Cite this work as:
 Gaussian 16, Revision C.01,
 M. J. Frisch, G. W. Trucks, H. B. Schlegel, G. E. Scuseria, 
 M. A. Robb, J. R. Cheeseman, G. Scalmani, V. Barone, 
 G. A. Petersson, H. Nakatsuji, X. Li, M. Caricato, A. V. Marenich, 
 J. Bloino, B. G. Janesko, R. Gomperts, B. Mennucci, H. P. Hratchian, 
 J. V. Ortiz, A. F. Izmaylov, J. L. Sonnenberg, D. Williams-Young, 
 F. Ding, F. Lipparini, F. Egidi, J. Goings, B. Peng, A. Petrone, 
 T. Henderson, D. Ranasinghe, V. G. Zakrzewski, J. Gao, N. Rega, 
 G. Zheng, W. Liang, M. Hada, M. Ehara, K. Toyota, R. Fukuda, 
 J. Hasegawa, M. Ishida, T. Nakajima, Y. Honda, O. Kitao, H. Nakai, 
 T. Vreven, K. Throssell, J. A. Montgomery, Jr., J. E. Peralta, 
 F. Ogliaro, M. J. Bearpark, J. J. Heyd, E. N. Brothers, K. N. Kudin, 
 V. N. Staroverov, T. A. Keith, R. Kobayashi, J. Normand, 
 K. Raghavachari, A. P. Rendell, J. C. Burant, S. S. Iyengar, 
 J. Tomasi, M. Cossi, J. M. Millam, M. Klene, C. Adamo, R. Cammi, 
 J. W. Ochterski, R. L. Martin, K. Morokuma, O. Farkas, 
 J. B. Foresman, and D. J. Fox, Gaussian, Inc., Wallingford CT, 2019.
 
 ******************************************
 Gaussian 16:  ES64L-G16RevC.01  3-Jul-2019
                26-Jan-2021 
 ******************************************
 %Chk=file_name
 %NProcShared=24
 Will use up to   24 processors via shared memory.
 %mem=48000mb
 -------------------------------------------
 #p b3lyp/6-311++G(3df,3pd) opt freq=noraman
 -------------------------------------------
 1/18=20,19=15,26=3,38=1/1,3;
 2/9=110,12=2,17=6,18=5,40=1/2;
 3/5=4,6=6,7=1616,11=2,25=1,30=1,71=1,74=-5/1,2,3;
 4//1;
 5/5=2,38=5/2;
 6/7=2,8=2,9=2,10=2,28=1/1;
 7//1,2,3,16;
 1/18=20,19=15,26=3/3(2);
 2/9=110/2;
 99//99;
 2/9=110/2;
 3/5=4,6=6,7=1616,11=2,25=1,30=1,71=1,74=-5/1,2,3;
 4/5=5,16=3,69=1/1;
 5/5=2,38=5/2;
 7//1,2,3,16;
 1/18=20,19=15,26=3/3(-5);
 2/9=110/2;
 6/7=2,8=2,9=2,10=2,19=2,28=1/1;
 99/9=1/99;
 Leave Link    1 at Tue Jan 26 00:24:29 2021, MaxMem=  6291456000 cpu:               8.8 elap:               0.5
 (Enter /home/orgChemistry/bin/gaussian16-C.01/g16/l101.exe)
 -----
 title
 -----
 Symbolic Z-matrix:
 Charge =  0 Multiplicity = 1
 6                    -3.01119   3.73295   0.44241 
 7                    -2.41844   2.54641  -0.11895 
 8                    -1.84114   1.76581   0.57538 
 1                    -2.84595   3.78137   1.54087 
 
 ITRead=  0  0  0  0
 MicOpt= -1 -1 -1 -1
 NAtoms=      4 NQM=        4 NQMF=       0 NMMI=      0 NMMIF=      0
                NMic=       0 NMicF=      0.
                    Isotopes and Nuclear Properties:
 (Nuclear quadrupole moments (NQMom) in fm**2, nuclear magnetic moments (NMagM)
  in nuclear magnetons)

  Atom         1           2           3           4
 IAtWgt=          12          14          16           1
 AtmWgt=  12.0000000  14.0030740  15.9949146   1.0078250
 NucSpn=           0           2           0           1
 AtZEff=  -0.0000000  -0.0000000  -0.0000000  -0.0000000
 NQMom=    0.0000000   2.0440000   0.0000000   0.0000000
 NMagM=    0.0000000   0.4037610   0.0000000   2.7928460
 AtZNuc=   6.0000000   7.0000000   8.0000000   1.0000000
 Leave Link  101 at Tue Jan 26 00:24:33 2021, MaxMem=  6291456000 cpu:               8.0 elap:               0.4
 (Enter /home/orgChemistry/bin/gaussian16-C.01/g16/l103.exe)

 GradGradGradGradGradGradGradGradGradGradGradGradGradGradGradGradGradGrad
 Berny optimization.
 Initialization pass.
                           ----------------------------
                           !    Initial Parameters    !
                           ! (Angstroms and Degrees)  !
 --------------------------                            --------------------------
 ! Name  Definition              Value          Derivative Info.                !
 --------------------------------------------------------------------------------
 ! R1    R(1,2)                  1.4403         estimate D2E/DX2                !
 ! R2    R(1,4)                  1.1119         estimate D2E/DX2                !
 ! R3    R(2,3)                  1.1936         estimate D2E/DX2                !
 ! A1    A(2,1,4)              111.0863         estimate D2E/DX2                !
 ! A2    A(1,2,3)              120.7368         estimate D2E/DX2                !
 ! D1    D(4,1,2,3)              0.0002         estimate D2E/DX2                !
 --------------------------------------------------------------------------------
 Trust Radius=3.00D-01 FncErr=1.00D-07 GrdErr=1.00D-06 EigMax=2.50D+02 EigMin=1.00D-04
 Number of steps in this run=     20 maximum allowed number of steps=    100.
 GradGradGradGradGradGradGradGradGradGradGradGradGradGradGradGradGradGrad

 Leave Link  103 at Tue Jan 26 00:24:36 2021, MaxMem=  6291456000 cpu:               0.6 elap:               0.3
 (Enter /home/orgChemistry/bin/gaussian16-C.01/g16/l202.exe)
                          Input orientation:                          
 ---------------------------------------------------------------------
 Center     Atomic      Atomic             Coordinates (Angstroms)
 Number     Number       Type             X           Y           Z
 ---------------------------------------------------------------------
      1          6           0       -3.011195    3.732946    0.442408
      2          7           0       -2.418438    2.546412   -0.118955
      3          8           0       -1.841137    1.765814    0.575382
      4          1           0       -2.845946    3.781370    1.540871
 ---------------------------------------------------------------------
                    Distance matrix (angstroms):
                    1          2          3          4
     1  C    0.000000
     2  N    1.440261   0.000000
     3  O    2.292668   1.193614   0.000000
     4  H    1.111879   2.112559   2.450362   0.000000
 Stoichiometry    CHNO
 Framework group  C1[X(CHNO)]
 Deg. of freedom     6
 Full point group                 C1      NOp   1
 Largest Abelian subgroup         C1      NOp   1
 Largest concise Abelian subgroup C1      NOp   1
                         Standard orientation:                         
 ---------------------------------------------------------------------
 Center     Atomic      Atomic             Coordinates (Angstroms)
 Number     Number       Type             X           Y           Z
 ---------------------------------------------------------------------
      1          6           0        1.257234    0.041429   -0.000001
      2          7           0       -0.083702   -0.484159    0.000000
      3          8           0       -1.026072    0.248406   -0.000000
      4          1           0        1.251088    1.153291    0.000002
 ---------------------------------------------------------------------
 Rotational constants (GHZ):          91.3415310          13.4715290          11.7400454
 Leave Link  202 at Tue Jan 26 00:24:39 2021, MaxMem=  6291456000 cpu:               5.8 elap:               0.4
 (Enter /home/orgChemistry/bin/gaussian16-C.01/g16/l301.exe)
 Standard basis: 6-311++G(3df,3pd) (5D, 7F)
 Ernie: Thresh=  0.10000D-02 Tol=  0.10000D-05 Strict=F.
 There are   154 symmetry adapted cartesian basis functions of A   symmetry.
 There are   135 symmetry adapted basis functions of A   symmetry.
   135 basis functions,   195 primitive gaussians,   154 cartesian basis functions
    11 alpha electrons       11 beta electrons
       nuclear repulsion energy        57.6743055299 Hartrees.
 IExCor=  402 DFT=T Ex+Corr=B3LYP ExCW=0 ScaHFX=  0.200000
 ScaDFX=  0.800000  0.720000  1.000000  0.810000 ScalE2=  1.000000  1.000000
 IRadAn=      5 IRanWt=     -1 IRanGd=            0 ICorTp=0 IEmpDi=  4
 NAtoms=    4 NActive=    4 NUniq=    4 SFac= 1.00D+00 NAtFMM=   60 NAOKFM=F Big=F
 Integral buffers will be    131072 words long.
 Raffenetti 2 integral format.
 Two-electron integral symmetry is turned on.
 Leave Link  301 at Tue Jan 26 00:24:43 2021, MaxMem=  6291456000 cpu:               1.3 elap:               0.3
 (Enter /home/orgChemistry/bin/gaussian16-C.01/g16/l302.exe)
 NPDir=0 NMtPBC=     1 NCelOv=     1 NCel=       1 NClECP=     1 NCelD=      1
         NCelK=      1 NCelE2=     1 NClLst=     1 CellRange=     0.0.
 One-electron integrals computed using PRISM.
 One-electron integral symmetry used in STVInt
 NBasis=   135 RedAO= T EigKep=  2.06D-04  NBF=   135
 NBsUse=   135 1.00D-06 EigRej= -1.00D+00 NBFU=   135
 Precomputing XC quadrature grid using
 IXCGrd= 4 IRadAn=           5 IRanWt=          -1 IRanGd=           0 AccXCQ= 0.00D+00.
 Generated NRdTot=       0 NPtTot=           0 NUsed=           0 NTot=          32
 NSgBfM=   154   154   154   154   154 MxSgAt=     4 MxSgA2=     4.
 Leave Link  302 at Tue Jan 26 00:24:48 2021, MaxMem=  6291456000 cpu:               6.0 elap:               0.5
 (Enter /home/orgChemistry/bin/gaussian16-C.01/g16/l303.exe)
 DipDrv:  MaxL=1.
 Leave Link  303 at Tue Jan 26 00:24:51 2021, MaxMem=  6291456000 cpu:               3.1 elap:               0.3
 (Enter /home/orgChemistry/bin/gaussian16-C.01/g16/l401.exe)
 ExpMin= 3.60D-02 ExpMax= 8.59D+03 ExpMxC= 1.30D+03 IAcc=3 IRadAn=         5 AccDes= 0.00D+00
 Harris functional with IExCor=  402 and IRadAn=       5 diagonalized for initial guess.
 HarFok:  IExCor=  402 AccDes= 0.00D+00 IRadAn=         5 IDoV= 1 UseB2=F ITyADJ=14
 ICtDFT=  3500011 ScaDFX=  1.000000  1.000000  1.000000  1.000000
 FoFCou: FMM=F IPFlag=           0 FMFlag=      100000 FMFlg1=           0
         NFxFlg=           0 DoJE=T BraDBF=F KetDBF=T FulRan=T
         wScrn=  0.000000 ICntrl=       500 IOpCl=  0 I1Cent=   200000004 NGrid=           0
         NMat0=    1 NMatS0=      1 NMatT0=    0 NMatD0=    1 NMtDS0=    0 NMtDT0=    0
 Petite list used in FoFCou.
 Harris En= -168.483198032845    
 JPrj=0 DoOrth=F DoCkMO=F.
 Leave Link  401 at Tue Jan 26 00:24:55 2021, MaxMem=  6291456000 cpu:               4.2 elap:               0.2
 (Enter /home/orgChemistry/bin/gaussian16-C.01/g16/l502.exe)
 Keep R1 ints in memory in canonical form, NReq=65669086.
 FoFCou: FMM=F IPFlag=           0 FMFlag=           0 FMFlg1=           0
         NFxFlg=           0 DoJE=F BraDBF=F KetDBF=F FulRan=T
         wScrn=  0.000000 ICntrl=       600 IOpCl=  0 I1Cent=           0 NGrid=           0
         NMat0=    1 NMatS0=   9180 NMatT0=    0 NMatD0=    1 NMtDS0=    0 NMtDT0=    0
 Symmetry not used in FoFCou.
 Two-electron integral symmetry not used.
 Closed shell SCF:
 Using DIIS extrapolation, IDIIS=  1040.
 NGot=  6291456000 LenX=  6249262622 LenY=  6249238465
 Requested convergence on RMS density matrix=1.00D-08 within 128 cycles.
 Requested convergence on MAX density matrix=1.00D-06.
 Requested convergence on             energy=1.00D-06.
 No special actions if energy rises.

 Cycle   1  Pass 1  IDiag  1:
 E= -168.233096125005    
 DIIS: error= 3.66D-02 at cycle   1 NSaved=   1.
 NSaved= 1 IEnMin= 1 EnMin= -168.233096125005     IErMin= 1 ErrMin= 3.66D-02
 ErrMax= 3.66D-02  0.00D+00 EMaxC= 1.00D-01 BMatC= 1.91D-01 BMatP= 1.91D-01
 IDIUse=3 WtCom= 6.34D-01 WtEn= 3.66D-01
 Coeff-Com:  0.100D+01
 Coeff-En:   0.100D+01
 Coeff:      0.100D+01
 Gap=    -0.145 Goal=   None    Shift=    0.000
 GapD=   -0.145 DampG=0.250 DampE=0.500 DampFc=0.2500 IDamp=-1.
 Damping current iteration by 2.50D-01
 RMSDP=9.40D-03 MaxDP=2.84D-01              OVMax= 7.62D-01

 Cycle   2  Pass 1  IDiag  1:
 E= -168.346506275162     Delta-E=       -0.113410150157 Rises=F Damp=T
 DIIS: error= 1.11D-02 at cycle   2 NSaved=   2.
 NSaved= 2 IEnMin= 2 EnMin= -168.346506275162     IErMin= 2 ErrMin= 1.11D-02
 ErrMax= 1.11D-02  0.00D+00 EMaxC= 1.00D-01 BMatC= 2.26D-02 BMatP= 1.91D-01
 IDIUse=3 WtCom= 8.89D-01 WtEn= 1.11D-01
 Coeff-Com:  0.795D-01 0.920D+00
 Coeff-En:   0.220D+00 0.780D+00
 Coeff:      0.950D-01 0.905D+00
 Gap=     0.184 Goal=   None    Shift=    0.000
 RMSDP=4.39D-03 MaxDP=1.25D-01 DE=-1.13D-01 OVMax= 8.08D-01

 Cycle   3  Pass 1  IDiag  1:
 E= -168.415212198432     Delta-E=       -0.068705923270 Rises=F Damp=F
 DIIS: error= 1.90D-02 at cycle   3 NSaved=   3.
 NSaved= 3 IEnMin= 3 EnMin= -168.415212198432     IErMin= 2 ErrMin= 1.11D-02
 ErrMax= 1.90D-02  0.00D+00 EMaxC= 1.00D-01 BMatC= 6.29D-02 BMatP= 2.26D-02
 IDIUse=2 WtCom= 0.00D+00 WtEn= 1.00D+00
 Coeff-En:   0.208D+00 0.000D+00 0.792D+00
 Coeff:      0.208D+00 0.000D+00 0.792D+00
 Gap=     0.012 Goal=   None    Shift=    0.000
 RMSDP=3.00D-03 MaxDP=9.73D-02 DE=-6.87D-02 OVMax= 2.69D-01

 Cycle   4  Pass 1  IDiag  1:
 E= -168.209379590666     Delta-E=        0.205832607766 Rises=F Damp=F
 DIIS: error= 5.05D-02 at cycle   4 NSaved=   4.
 NSaved= 4 IEnMin= 3 EnMin= -168.415212198432     IErMin= 2 ErrMin= 1.11D-02
 ErrMax= 5.05D-02  0.00D+00 EMaxC= 1.00D-01 BMatC= 2.97D-01 BMatP= 2.26D-02
 IDIUse=2 WtCom= 0.00D+00 WtEn= 1.00D+00
 EnCoef did     2 forward-backward iterations
 Coeff-En:   0.226D+00 0.000D+00 0.609D+00 0.166D+00
 Coeff:      0.226D+00 0.000D+00 0.609D+00 0.166D+00
 Gap=     0.027 Goal=   None    Shift=    0.000
 RMSDP=3.48D-03 MaxDP=1.12D-01 DE= 2.06D-01 OVMax= 4.10D-01

 Cycle   5  Pass 1  IDiag  1:
 E= -168.445525082029     Delta-E=       -0.236145491364 Rises=F Damp=F
 DIIS: error= 1.22D-02 at cycle   5 NSaved=   5.
 NSaved= 5 IEnMin= 5 EnMin= -168.445525082029     IErMin= 2 ErrMin= 1.11D-02
 ErrMax= 1.22D-02  0.00D+00 EMaxC= 1.00D-01 BMatC= 2.25D-02 BMatP= 2.26D-02
 IDIUse=3 WtCom= 8.78D-01 WtEn= 1.22D-01
 EnCoef did   100 forward-backward iterations
 Coeff-Com: -0.171D-01 0.818D-01 0.350D+00 0.195D-01 0.566D+00
 Coeff-En:   0.000D+00 0.000D+00 0.336D+00 0.361D-03 0.663D+00
 Coeff:     -0.150D-01 0.718D-01 0.349D+00 0.171D-01 0.578D+00
 Gap=     0.046 Goal=   None    Shift=    0.000
 RMSDP=1.28D-03 MaxDP=2.49D-02 DE=-2.36D-01 OVMax= 1.39D-01

 Cycle   6  Pass 1  IDiag  1:
 E= -168.462277096118     Delta-E=       -0.016752014089 Rises=F Damp=F
 DIIS: error= 5.60D-03 at cycle   6 NSaved=   6.
 NSaved= 6 IEnMin= 6 EnMin= -168.462277096118     IErMin= 6 ErrMin= 5.60D-03
 ErrMax= 5.60D-03  0.00D+00 EMaxC= 1.00D-01 BMatC= 3.31D-03 BMatP= 2.25D-02
 IDIUse=3 WtCom= 9.44D-01 WtEn= 5.60D-02
 Coeff-Com:  0.779D-02-0.248D-01 0.785D-01-0.335D-01 0.320D+00 0.653D+00
 Coeff-En:   0.000D+00 0.000D+00 0.000D+00 0.000D+00 0.206D+00 0.794D+00
 Coeff:      0.736D-02-0.234D-01 0.741D-01-0.317D-01 0.313D+00 0.660D+00
 Gap=     0.055 Goal=   None    Shift=    0.000
 RMSDP=2.62D-04 MaxDP=6.51D-03 DE=-1.68D-02 OVMax= 2.54D-02

 Cycle   7  Pass 1  IDiag  1:
 E= -168.465466059237     Delta-E=       -0.003188963120 Rises=F Damp=F
 DIIS: error= 1.03D-03 at cycle   7 NSaved=   7.
 NSaved= 7 IEnMin= 7 EnMin= -168.465466059237     IErMin= 7 ErrMin= 1.03D-03
 ErrMax= 1.03D-03  0.00D+00 EMaxC= 1.00D-01 BMatC= 1.53D-04 BMatP= 3.31D-03
 IDIUse=3 WtCom= 9.90D-01 WtEn= 1.03D-02
 Coeff-Com:  0.514D-02-0.213D-02-0.744D-02-0.169D-01 0.464D-01 0.243D-01
 Coeff-Com:  0.951D+00
 Coeff-En:   0.000D+00 0.000D+00 0.000D+00 0.000D+00 0.000D+00 0.000D+00
 Coeff-En:   0.100D+01
 Coeff:      0.509D-02-0.211D-02-0.736D-02-0.167D-01 0.459D-01 0.241D-01
 Coeff:      0.951D+00
 Gap=     0.054 Goal=   None    Shift=    0.000
 RMSDP=6.73D-05 MaxDP=1.19D-03 DE=-3.19D-03 OVMax= 6.86D-03

 Cycle   8  Pass 1  IDiag  1:
 E= -168.465526972212     Delta-E=       -0.000060912975 Rises=F Damp=F
 DIIS: error= 9.48D-04 at cycle   8 NSaved=   8.
 NSaved= 8 IEnMin= 8 EnMin= -168.465526972212     IErMin= 8 ErrMin= 9.48D-04
 ErrMax= 9.48D-04  0.00D+00 EMaxC= 1.00D-01 BMatC= 1.11D-04 BMatP= 1.53D-04
 IDIUse=3 WtCom= 9.91D-01 WtEn= 9.48D-03
 Coeff-Com:  0.288D-02 0.352D-02-0.516D-02-0.365D-02-0.152D-01-0.206D+00
 Coeff-Com:  0.982D-01 0.113D+01
 Coeff-En:   0.000D+00 0.000D+00 0.000D+00 0.000D+00 0.000D+00 0.000D+00
 Coeff-En:   0.000D+00 0.100D+01
 Coeff:      0.286D-02 0.349D-02-0.511D-02-0.362D-02-0.150D-01-0.204D+00
 Coeff:      0.972D-01 0.112D+01
 Gap=     0.055 Goal=   None    Shift=    0.000
 RMSDP=4.10D-05 MaxDP=1.12D-03 DE=-6.09D-05 OVMax= 5.67D-03

 Cycle   9  Pass 1  IDiag  1:
 E= -168.465638592299     Delta-E=       -0.000111620086 Rises=F Damp=F
 DIIS: error= 2.44D-04 at cycle   9 NSaved=   9.
 NSaved= 9 IEnMin= 9 EnMin= -168.465638592299     IErMin= 9 ErrMin= 2.44D-04
 ErrMax= 2.44D-04  0.00D+00 EMaxC= 1.00D-01 BMatC= 7.97D-06 BMatP= 1.11D-04
 IDIUse=3 WtCom= 9.98D-01 WtEn= 2.44D-03
 Coeff-Com:  0.357D-03 0.771D-03-0.278D-03-0.480D-03-0.400D-02-0.253D-01
 Coeff-Com: -0.146D+00-0.216D-01 0.120D+01
 Coeff-En:   0.000D+00 0.000D+00 0.000D+00 0.000D+00 0.000D+00 0.000D+00
 Coeff-En:   0.000D+00 0.000D+00 0.100D+01
 Coeff:      0.356D-03 0.770D-03-0.278D-03-0.479D-03-0.399D-02-0.252D-01
 Coeff:     -0.146D+00-0.215D-01 0.120D+01
 Gap=     0.055 Goal=   None    Shift=    0.000
 RMSDP=1.82D-05 MaxDP=4.71D-04 DE=-1.12D-04 OVMax= 2.37D-03

 Cycle  10  Pass 1  IDiag  1:
 E= -168.465647464392     Delta-E=       -0.000008872093 Rises=F Damp=F
 DIIS: error= 2.71D-05 at cycle  10 NSaved=  10.
 NSaved=10 IEnMin=10 EnMin= -168.465647464392     IErMin=10 ErrMin= 2.71D-05
 ErrMax= 2.71D-05  0.00D+00 EMaxC= 1.00D-01 BMatC= 9.02D-08 BMatP= 7.97D-06
 IDIUse=1 WtCom= 1.00D+00 WtEn= 0.00D+00
 Coeff-Com:  0.516D-04-0.960D-05 0.197D-03-0.125D-03-0.136D-04 0.249D-02
 Coeff-Com: -0.379D-01-0.494D-01 0.226D+00 0.859D+00
 Coeff:      0.516D-04-0.960D-05 0.197D-03-0.125D-03-0.136D-04 0.249D-02
 Coeff:     -0.379D-01-0.494D-01 0.226D+00 0.859D+00
 Gap=     0.055 Goal=   None    Shift=    0.000
 RMSDP=1.97D-06 MaxDP=5.91D-05 DE=-8.87D-06 OVMax= 2.89D-04

 Cycle  11  Pass 1  IDiag  1:
 E= -168.465647563946     Delta-E=       -0.000000099555 Rises=F Damp=F
 DIIS: error= 3.55D-06 at cycle  11 NSaved=  11.
 NSaved=11 IEnMin=11 EnMin= -168.465647563946     IErMin=11 ErrMin= 3.55D-06
 ErrMax= 3.55D-06  0.00D+00 EMaxC= 1.00D-01 BMatC= 2.25D-09 BMatP= 9.02D-08
 IDIUse=1 WtCom= 1.00D+00 WtEn= 0.00D+00
 Coeff-Com:  0.131D-05 0.732D-06 0.120D-03 0.275D-05 0.130D-03 0.486D-03
 Coeff-Com:  0.163D-03-0.969D-03-0.749D-02 0.139D+00 0.869D+00
 Coeff:      0.131D-05 0.732D-06 0.120D-03 0.275D-05 0.130D-03 0.486D-03
 Coeff:      0.163D-03-0.969D-03-0.749D-02 0.139D+00 0.869D+00
 Gap=     0.055 Goal=   None    Shift=    0.000
 RMSDP=2.44D-07 MaxDP=5.64D-06 DE=-9.96D-08 OVMax= 2.47D-05

 Cycle  12  Pass 1  IDiag  1:
 E= -168.465647566099     Delta-E=       -0.000000002152 Rises=F Damp=F
 DIIS: error= 9.43D-07 at cycle  12 NSaved=  12.
 NSaved=12 IEnMin=12 EnMin= -168.465647566099     IErMin=12 ErrMin= 9.43D-07
 ErrMax= 9.43D-07  0.00D+00 EMaxC= 1.00D-01 BMatC= 1.04D-10 BMatP= 2.25D-09
 IDIUse=1 WtCom= 1.00D+00 WtEn= 0.00D+00
 Coeff-Com: -0.173D-05-0.213D-05 0.182D-04 0.522D-05 0.122D-04 0.168D-03
 Coeff-Com:  0.378D-03 0.225D-03-0.403D-02 0.154D-01 0.803D-01 0.908D+00
 Coeff:     -0.173D-05-0.213D-05 0.182D-04 0.522D-05 0.122D-04 0.168D-03
 Coeff:      0.378D-03 0.225D-03-0.403D-02 0.154D-01 0.803D-01 0.908D+00
 Gap=     0.055 Goal=   None    Shift=    0.000
 RMSDP=7.72D-08 MaxDP=2.11D-06 DE=-2.15D-09 OVMax= 7.98D-06

 Cycle  13  Pass 1  IDiag  1:
 E= -168.465647566213     Delta-E=       -0.000000000115 Rises=F Damp=F
 DIIS: error= 2.43D-07 at cycle  13 NSaved=  13.
 NSaved=13 IEnMin=13 EnMin= -168.465647566213     IErMin=13 ErrMin= 2.43D-07
 ErrMax= 2.43D-07  0.00D+00 EMaxC= 1.00D-01 BMatC= 2.98D-12 BMatP= 1.04D-10
 IDIUse=1 WtCom= 1.00D+00 WtEn= 0.00D+00
 Coeff-Com: -0.283D-06-0.754D-06-0.365D-05-0.755D-07-0.882D-05 0.334D-04
 Coeff-Com:  0.563D-04 0.372D-04-0.109D-02-0.332D-02-0.420D-01 0.168D+00
 Coeff-Com:  0.878D+00
 Coeff:     -0.283D-06-0.754D-06-0.365D-05-0.755D-07-0.882D-05 0.334D-04
 Coeff:      0.563D-04 0.372D-04-0.109D-02-0.332D-02-0.420D-01 0.168D+00
 Coeff:      0.878D+00
 Gap=     0.055 Goal=   None    Shift=    0.000
 RMSDP=2.21D-08 MaxDP=4.76D-07 DE=-1.15D-10 OVMax= 2.46D-06

 Cycle  14  Pass 1  IDiag  1:
 E= -168.465647566216     Delta-E=       -0.000000000003 Rises=F Damp=F
 DIIS: error= 7.20D-08 at cycle  14 NSaved=  14.
 NSaved=14 IEnMin=14 EnMin= -168.465647566216     IErMin=14 ErrMin= 7.20D-08
 ErrMax= 7.20D-08  0.00D+00 EMaxC= 1.00D-01 BMatC= 6.59D-13 BMatP= 2.98D-12
 IDIUse=1 WtCom= 1.00D+00 WtEn= 0.00D+00
 Coeff-Com:  0.732D-07 0.327D-06-0.943D-06-0.180D-06-0.311D-05 0.486D-05
 Coeff-Com: -0.345D-05-0.102D-04-0.305D-03-0.183D-02-0.142D-01 0.142D-01
 Coeff-Com:  0.233D+00 0.769D+00
 Coeff:      0.732D-07 0.327D-06-0.943D-06-0.180D-06-0.311D-05 0.486D-05
 Coeff:     -0.345D-05-0.102D-04-0.305D-03-0.183D-02-0.142D-01 0.142D-01
 Coeff:      0.233D+00 0.769D+00
 Gap=     0.055 Goal=   None    Shift=    0.000
 RMSDP=5.27D-09 MaxDP=1.22D-07 DE=-2.96D-12 OVMax= 6.78D-07

 SCF Done:  E(RB3LYP) =  -168.465647566     A.U. after   14 cycles
            NFock= 14  Conv=0.53D-08     -V/T= 2.0039
 KE= 1.678132084293D+02 PE=-5.101442237294D+02 EE= 1.161910622041D+02
 Leave Link  502 at Tue Jan 26 00:25:03 2021, MaxMem=  6291456000 cpu:              37.3 elap:               2.8
 (Enter /home/orgChemistry/bin/gaussian16-C.01/g16/l601.exe)
 Copying SCF densities to generalized density rwf, IOpCl= 0 IROHF=0.

 **********************************************************************

            Population analysis using the SCF Density.

 **********************************************************************

 Orbital symmetries:
       Occupied  (A) (A) (A) (A) (A) (A) (A) (A) (A) (A) (A)
       Virtual   (A) (A) (A) (A) (A) (A) (A) (A) (A) (A) (A) (A)
                 (A) (A) (A) (A) (A) (A) (A) (A) (A) (A) (A) (A)
                 (A) (A) (A) (A) (A) (A) (A) (A) (A) (A) (A) (A)
                 (A) (A) (A) (A) (A) (A) (A) (A) (A) (A) (A) (A)
                 (A) (A) (A) (A) (A) (A) (A) (A) (A) (A) (A) (A)
                 (A) (A) (A) (A) (A) (A) (A) (A) (A) (A) (A) (A)
                 (A) (A) (A) (A) (A) (A) (A) (A) (A) (A) (A) (A)
                 (A) (A) (A) (A) (A) (A) (A) (A) (A) (A) (A) (A)
                 (A) (A) (A) (A) (A) (A) (A) (A) (A) (A) (A) (A)
                 (A) (A) (A) (A) (A) (A) (A) (A) (A) (A) (A) (A)
                 (A) (A) (A) (A)
 The electronic state is 1-A.
 Alpha  occ. eigenvalues --  -19.27617 -14.48740 -10.27603  -1.23776  -0.82798
 Alpha  occ. eigenvalues --   -0.63593  -0.53824  -0.52221  -0.50117  -0.27783
 Alpha  occ. eigenvalues --   -0.27548
 Alpha virt. eigenvalues --   -0.22045  -0.07430   0.00494   0.03448   0.06164
 Alpha virt. eigenvalues --    0.06870   0.08551   0.11028   0.12455   0.13837
 Alpha virt. eigenvalues --    0.14872   0.18604   0.19420   0.21277   0.22928
 Alpha virt. eigenvalues --    0.25248   0.29375   0.32556   0.34619   0.39458
 Alpha virt. eigenvalues --    0.41117   0.43003   0.48327   0.52542   0.54437
 Alpha virt. eigenvalues --    0.55045   0.55770   0.59983   0.64309   0.64730
 Alpha virt. eigenvalues --    0.68773   0.75256   0.76128   0.77751   0.82850
 Alpha virt. eigenvalues --    0.84120   0.85359   0.92964   0.94671   0.97985
 Alpha virt. eigenvalues --    0.99092   1.01297   1.09616   1.16248   1.31870
 Alpha virt. eigenvalues --    1.35777   1.44389   1.44636   1.59494   1.62634
 Alpha virt. eigenvalues --    1.65848   1.73972   1.85697   2.01097   2.02627
 Alpha virt. eigenvalues --    2.24241   2.28094   2.31103   2.34557   2.47802
 Alpha virt. eigenvalues --    2.51495   2.53357   2.63242   2.63475   2.71096
 Alpha virt. eigenvalues --    2.76530   3.01336   3.01435   3.07104   3.10505
 Alpha virt. eigenvalues --    3.20403   3.24287   3.26308   3.27521   3.40656
 Alpha virt. eigenvalues --    3.43672   3.47367   3.59973   3.76113   3.77394
 Alpha virt. eigenvalues --    3.79369   3.86652   3.91266   4.05886   4.24314
 Alpha virt. eigenvalues --    4.27873   4.33319   4.48521   4.56817   4.61219
 Alpha virt. eigenvalues --    4.68371   4.92769   4.95235   4.96734   5.05784
 Alpha virt. eigenvalues --    5.18535   5.34162   5.43640   5.54729   5.61983
 Alpha virt. eigenvalues --    6.40404   6.52184   7.03197   7.10634   7.13638
 Alpha virt. eigenvalues --    7.18288   7.41416   7.85658   8.35381   8.40762
 Alpha virt. eigenvalues --    9.23405  10.13010  10.18859  10.39312  10.82249
 Alpha virt. eigenvalues --   11.00522  14.16366  14.19061  14.56942  14.61681
 Alpha virt. eigenvalues --   14.98320  24.96535  36.05910  50.31566
          Condensed to atoms (all electrons):
               1          2          3          4
     1  C    5.887755  -0.126074   0.002715   0.098833
     2  N   -0.126074   7.362728  -0.274588   0.048078
     3  O    0.002715  -0.274588   8.474846  -0.020703
     4  H    0.098833   0.048078  -0.020703   0.818148
 Mulliken charges:
               1
     1  C    0.136771
     2  N   -0.010145
     3  O   -0.182270
     4  H    0.055644
 Sum of Mulliken charges =  -0.00000
 Mulliken charges with hydrogens summed into heavy atoms:
               1
     1  C    0.192414
     2  N   -0.010145
     3  O   -0.182270
 Electronic spatial extent (au):  <R**2>=            121.5739
 Charge=             -0.0000 electrons
 Dipole moment (field-independent basis, Debye):
    X=             -0.1389    Y=              0.6986    Z=              0.0000  Tot=              0.7123
 Quadrupole moment (field-independent basis, Debye-Ang):
   XX=            -18.0755   YY=            -16.9691   ZZ=            -18.0241
   XY=              1.8694   XZ=             -0.0000   YZ=              0.0000
 Traceless Quadrupole moment (field-independent basis, Debye-Ang):
   XX=             -0.3859   YY=              0.7204   ZZ=             -0.3345
   XY=              1.8694   XZ=             -0.0000   YZ=              0.0000
 Octapole moment (field-independent basis, Debye-Ang**2):
  XXX=             -9.8970  YYY=              1.3807  ZZZ=             -0.0000  XYY=             -2.1519
  XXY=              2.1036  XXZ=             -0.0000  XZZ=             -3.4992  YZZ=              0.3276
  YYZ=              0.0000  XYZ=              0.0000
 Hexadecapole moment (field-independent basis, Debye-Ang**3):
 XXXX=           -116.3051 YYYY=            -32.8938 ZZZZ=            -18.6684 XXXY=              4.9543
 XXXZ=             -0.0000 YYYX=              0.6553 YYYZ=              0.0000 ZZZX=              0.0000
 ZZZY=              0.0000 XXYY=            -23.7562 XXZZ=            -23.5145 YYZZ=             -8.8999
 XXYZ=              0.0000 YYXZ=              0.0000 ZZXY=              0.3273
 N-N= 5.767430552989D+01 E-N=-5.101442204956D+02  KE= 1.678132084293D+02
 No NMR shielding tensors so no spin-rotation constants.
 Leave Link  601 at Tue Jan 26 00:25:09 2021, MaxMem=  6291456000 cpu:              10.2 elap:               0.9
 (Enter /home/orgChemistry/bin/gaussian16-C.01/g16/l701.exe)
 ... and contract with generalized density number  0.
 Compute integral first derivatives.
 Leave Link  701 at Tue Jan 26 00:25:13 2021, MaxMem=  6291456000 cpu:               6.3 elap:               0.5
 (Enter /home/orgChemistry/bin/gaussian16-C.01/g16/l702.exe)
 L702 exits ... SP integral derivatives will be done elsewhere.
 Leave Link  702 at Tue Jan 26 00:25:14 2021, MaxMem=  6291456000 cpu:               0.4 elap:               0.1
 (Enter /home/orgChemistry/bin/gaussian16-C.01/g16/l703.exe)
 Integral derivatives from FoFJK, PRISM(SPDF).
 Compute integral first derivatives, UseDBF=F ICtDFT=           0.
 Calling FoFJK, ICntrl=      2127 FMM=F ISym2X=0 I1Cent= 0 IOpClX= 0 NMat=1 NMatS=1 NMatT=0.
 FoFJK:  IHMeth= 1 ICntrl=    2127 DoSepK=F KAlg= 0 I1Cent=           0 FoldK=F
 IRaf=         0 NMat=       1 IRICut=       1 DoRegI=T DoRafI=F ISym2E= 0 IDoP0=0 IntGTp=1.
 FoFCou: FMM=F IPFlag=           0 FMFlag=      100000 FMFlg1=         800
         NFxFlg=           0 DoJE=F BraDBF=F KetDBF=F FulRan=T
         wScrn=  0.000000 ICntrl=      2127 IOpCl=  0 I1Cent=           0 NGrid=           0
         NMat0=    1 NMatS0=      1 NMatT0=    0 NMatD0=    1 NMtDS0=    0 NMtDT0=    0
 Symmetry not used in FoFCou.
 Leave Link  703 at Tue Jan 26 00:25:17 2021, MaxMem=  6291456000 cpu:              20.6 elap:               1.1
 (Enter /home/orgChemistry/bin/gaussian16-C.01/g16/l716.exe)
 Dipole        =-5.46553308D-02 2.74846939D-01 5.54254206D-08
 ***** Axes restored to original set *****
 -------------------------------------------------------------------
 Center     Atomic                   Forces (Hartrees/Bohr)
 Number     Number              X              Y              Z
 -------------------------------------------------------------------
      1        6           0.011984632   -0.018152247    0.007968193
      2        7          -0.005221683    0.001535049   -0.024564891
      3        8          -0.008288223    0.018827291    0.015250064
      4        1           0.001525274   -0.002210093    0.001346633
 -------------------------------------------------------------------
 Cartesian Forces:  Max     0.024564891 RMS     0.012364041
 Leave Link  716 at Tue Jan 26 00:25:18 2021, MaxMem=  6291456000 cpu:               0.7 elap:               0.1
 (Enter /home/orgChemistry/bin/gaussian16-C.01/g16/l103.exe)

 GradGradGradGradGradGradGradGradGradGradGradGradGradGradGradGradGradGrad
 Berny optimization.
 FormGI is forming the generalized inverse of G from B-inverse, IUseBI=4.
 Internal  Forces:  Max     0.055260517 RMS     0.024123493
 Search for a local minimum.
 Step number   1 out of a maximum of   20
 All quantities printed in internal units (Hartrees-Bohrs-Radians)
 RMS Force = .24123D-01 SwitMx=.10000D-02 MixMth= 1
 Mixed Optimization -- RFO/linear search
 Second derivative matrix not updated -- first step.
 The second derivative matrix:
                          R1        R2        R3        A1        A2
           R1           0.39550
           R2           0.00000   0.32402
           R3           0.00000   0.00000   1.08099
           A1           0.00000   0.00000   0.00000   0.16000
           A2           0.00000   0.00000   0.00000   0.00000   0.25000
           D1           0.00000   0.00000   0.00000   0.00000   0.00000
                          D1
           D1           0.01159
 ITU=  0
     Eigenvalues ---    0.01159   0.16000   0.25000   0.32402   0.39550
     Eigenvalues ---    1.08099
 RFO step:  Lambda=-1.27140757D-02 EMin= 1.15920277D-02
 Linear search not attempted -- first point.
 Iteration  1 RMS(Cart)=  0.15791248 RMS(Int)=  0.01245690
 Iteration  2 RMS(Cart)=  0.01507317 RMS(Int)=  0.00008800
 Iteration  3 RMS(Cart)=  0.00009925 RMS(Int)=  0.00000001
 Iteration  4 RMS(Cart)=  0.00000001 RMS(Int)=  0.00000000
 ITry= 1 IFail=0 DXMaxC= 2.48D-01 DCOld= 1.00D+10 DXMaxT= 3.00D-01 DXLimC= 3.00D+00 Rises=F
 Variable       Old X    -DE/DX   Delta X   Delta X   Delta X     New X
                                 (Linear)    (Quad)   (Total)
    R1        2.72170  -0.01870   0.00000  -0.04582  -0.04582   2.67588
    R2        2.10115   0.00146   0.00000   0.00434   0.00434   2.10549
    R3        2.25560  -0.00745   0.00000  -0.00681  -0.00681   2.24879
    A1        1.93882  -0.00552   0.00000  -0.03194  -0.03194   1.90689
    A2        2.10725  -0.05526   0.00000  -0.21034  -0.21034   1.89691
    D1        0.00000  -0.00000   0.00000  -0.00001  -0.00001  -0.00001
         Item               Value     Threshold  Converged?
 Maximum Force            0.055261     0.000450     NO 
 RMS     Force            0.024123     0.000300     NO 
 Maximum Displacement     0.247997     0.001800     NO 
 RMS     Displacement     0.169835     0.001200     NO 
 Predicted change in Energy=-6.658548D-03
 Lowest energy point so far.  Saving SCF results.
 GradGradGradGradGradGradGradGradGradGradGradGradGradGradGradGradGradGrad

 Leave Link  103 at Tue Jan 26 00:25:18 2021, MaxMem=  6291456000 cpu:               4.2 elap:               0.2
 (Enter /home/orgChemistry/bin/gaussian16-C.01/g16/l202.exe)
                          Input orientation:                          
 ---------------------------------------------------------------------
 Center     Atomic      Atomic             Coordinates (Angstroms)
 Number     Number       Type             X           Y           Z
 ---------------------------------------------------------------------
      1          6           0       -2.994662    3.701052    0.430700
      2          7           0       -2.432507    2.552724   -0.177921
      3          8           0       -1.902402    1.897048    0.661842
      4          1           0       -2.787144    3.675718    1.525086
 ---------------------------------------------------------------------
                    Distance matrix (angstroms):
                    1          2          3          4
     1  C    0.000000
     2  N    1.416014   0.000000
     3  O    2.121529   1.190009   0.000000
     4  H    1.114175   2.070535   2.166016   0.000000
 Stoichiometry    CHNO
 Framework group  C1[X(CHNO)]
 Deg. of freedom     6
 Full point group                 C1      NOp   1
 RotChk:  IX=2 Diff= 6.32D-02
 Largest Abelian subgroup         C1      NOp   1
 Largest concise Abelian subgroup C1      NOp   1
                         Standard orientation:                         
 ---------------------------------------------------------------------
 Center     Atomic      Atomic             Coordinates (Angstroms)
 Number     Number       Type             X           Y           Z
 ---------------------------------------------------------------------
      1          6           0        1.177368    0.075810    0.000001
      2          7           0       -0.089732   -0.556292   -0.000001
      3          8           0       -0.934091    0.282265    0.000001
      4          1           0        1.036642    1.181062   -0.000006
 ---------------------------------------------------------------------
 Rotational constants (GHZ):          72.3181979          15.8804711          13.0211381
 Leave Link  202 at Tue Jan 26 00:25:18 2021, MaxMem=  6291456000 cpu:               1.2 elap:               0.1
 (Enter /home/orgChemistry/bin/gaussian16-C.01/g16/l301.exe)
 Standard basis: 6-311++G(3df,3pd) (5D, 7F)
 Ernie: Thresh=  0.10000D-02 Tol=  0.10000D-05 Strict=F.
 There are   154 symmetry adapted cartesian basis functions of A   symmetry.
 There are   135 symmetry adapted basis functions of A   symmetry.
   135 basis functions,   195 primitive gaussians,   154 cartesian basis functions
    11 alpha electrons       11 beta electrons
       nuclear repulsion energy        59.1639858625 Hartrees.
 IExCor=  402 DFT=T Ex+Corr=B3LYP ExCW=0 ScaHFX=  0.200000
 ScaDFX=  0.800000  0.720000  1.000000  0.810000 ScalE2=  1.000000  1.000000
 IRadAn=      5 IRanWt=     -1 IRanGd=            0 ICorTp=0 IEmpDi=  4
 NAtoms=    4 NActive=    4 NUniq=    4 SFac= 1.00D+00 NAtFMM=   60 NAOKFM=F Big=F
 Integral buffers will be    131072 words long.
 Raffenetti 2 integral format.
 Two-electron integral symmetry is turned on.
 Leave Link  301 at Tue Jan 26 00:25:18 2021, MaxMem=  6291456000 cpu:               1.5 elap:               0.1
 (Enter /home/orgChemistry/bin/gaussian16-C.01/g16/l302.exe)
 NPDir=0 NMtPBC=     1 NCelOv=     1 NCel=       1 NClECP=     1 NCelD=      1
         NCelK=      1 NCelE2=     1 NClLst=     1 CellRange=     0.0.
 One-electron integrals computed using PRISM.
 One-electron integral symmetry used in STVInt
 NBasis=   135 RedAO= T EigKep=  1.98D-04  NBF=   135
 NBsUse=   135 1.00D-06 EigRej= -1.00D+00 NBFU=   135
 Precomputing XC quadrature grid using
 IXCGrd= 4 IRadAn=           5 IRanWt=          -1 IRanGd=           0 AccXCQ= 0.00D+00.
 Generated NRdTot=       0 NPtTot=           0 NUsed=           0 NTot=          32
 NSgBfM=   154   154   154   154   154 MxSgAt=     4 MxSgA2=     4.
 Leave Link  302 at Tue Jan 26 00:25:18 2021, MaxMem=  6291456000 cpu:               2.8 elap:               0.1
 (Enter /home/orgChemistry/bin/gaussian16-C.01/g16/l303.exe)
 DipDrv:  MaxL=1.
 Leave Link  303 at Tue Jan 26 00:25:18 2021, MaxMem=  6291456000 cpu:               1.6 elap:               0.1
 (Enter /home/orgChemistry/bin/gaussian16-C.01/g16/l401.exe)
 Initial guess from the checkpoint file:  "file_name.chk"
 B after Tr=     0.000000    0.000000    0.000000
         Rot=    0.999996    0.000000   -0.000000   -0.002816 Ang=   0.32 deg.
 Guess basis will be translated and rotated to current coordinates.
 JPrj=2 DoOrth=T DoCkMO=T.
 Generating alternative initial guess.
 ExpMin= 3.60D-02 ExpMax= 8.59D+03 ExpMxC= 1.30D+03 IAcc=3 IRadAn=         5 AccDes= 0.00D+00
 Harris functional with IExCor=  402 and IRadAn=       5 diagonalized for initial guess.
 HarFok:  IExCor=  402 AccDes= 0.00D+00 IRadAn=         5 IDoV= 1 UseB2=F ITyADJ=14
 ICtDFT=  3500011 ScaDFX=  1.000000  1.000000  1.000000  1.000000
 FoFCou: FMM=F IPFlag=           0 FMFlag=      100000 FMFlg1=           0
         NFxFlg=           0 DoJE=T BraDBF=F KetDBF=T FulRan=T
         wScrn=  0.000000 ICntrl=       500 IOpCl=  0 I1Cent=   200000004 NGrid=           0
         NMat0=    1 NMatS0=      1 NMatT0=    0 NMatD0=    1 NMtDS0=    0 NMtDT0=    0
 Petite list used in FoFCou.
 Harris En= -168.472184078375    
 Leave Link  401 at Tue Jan 26 00:25:19 2021, MaxMem=  6291456000 cpu:               5.8 elap:               0.3
 (Enter /home/orgChemistry/bin/gaussian16-C.01/g16/l502.exe)
 Keep R1 ints in memory in canonical form, NReq=65669086.
 FoFCou: FMM=F IPFlag=           0 FMFlag=           0 FMFlg1=           0
         NFxFlg=           0 DoJE=F BraDBF=F KetDBF=F FulRan=T
         wScrn=  0.000000 ICntrl=       600 IOpCl=  0 I1Cent=           0 NGrid=           0
         NMat0=    1 NMatS0=   9180 NMatT0=    0 NMatD0=    1 NMtDS0=    0 NMtDT0=    0
 Symmetry not used in FoFCou.
 Two-electron integral symmetry not used.
 Closed shell SCF:
 Using DIIS extrapolation, IDIIS=  1040.
 NGot=  6291456000 LenX=  6249262622 LenY=  6249238465
 Requested convergence on RMS density matrix=1.00D-08 within 128 cycles.
 Requested convergence on MAX density matrix=1.00D-06.
 Requested convergence on             energy=1.00D-06.
 No special actions if energy rises.

 Cycle   1  Pass 1  IDiag  1:
 E= -168.454013931077    
 DIIS: error= 1.07D-02 at cycle   1 NSaved=   1.
 NSaved= 1 IEnMin= 1 EnMin= -168.454013931077     IErMin= 1 ErrMin= 1.07D-02
 ErrMax= 1.07D-02  0.00D+00 EMaxC= 1.00D-01 BMatC= 2.01D-02 BMatP= 2.01D-02
 IDIUse=3 WtCom= 8.93D-01 WtEn= 1.07D-01
 Coeff-Com:  0.100D+01
 Coeff-En:   0.100D+01
 Coeff:      0.100D+01
 Recover alternate guess density for next cycle.
 RMSDP=1.70D-03 MaxDP=3.04D-02              OVMax= 0.00D+00

 Cycle   2  Pass 1  IDiag  1:
 E= -168.423421047679     Delta-E=        0.030592883397 Rises=F Damp=F
 Switch densities from cycles 1 and 2 for lowest energy.
 DIIS: error= 2.07D-02 at cycle   2 NSaved=   2.
 NSaved= 2 IEnMin= 1 EnMin= -168.454013931077     IErMin= 1 ErrMin= 1.07D-02
 ErrMax= 2.07D-02  0.00D+00 EMaxC= 1.00D+00 BMatC= 5.92D-02 BMatP= 2.01D-02
 IDIUse=1 WtCom= 1.00D+00 WtEn= 0.00D+00
 Coeff-Com:  0.751D+00 0.249D+00
 Coeff:      0.751D+00 0.249D+00
 Gap=     0.054 Goal=   None    Shift=    0.000
 RMSDP=3.36D-03 MaxDP=1.02D-01 DE= 3.06D-02 OVMax= 3.61D-01

 Cycle   3  Pass 1  IDiag  1:
 E= -168.311799904262     Delta-E=        0.111621143418 Rises=F Damp=F
 DIIS: error= 3.25D-02 at cycle   3 NSaved=   3.
 NSaved= 3 IEnMin= 1 EnMin= -168.454013931077     IErMin= 1 ErrMin= 1.07D-02
 ErrMax= 3.25D-02  0.00D+00 EMaxC= 1.00D+00 BMatC= 1.58D-01 BMatP= 2.01D-02
 IDIUse=1 WtCom= 1.00D+00 WtEn= 0.00D+00
 Coeff-Com:  0.344D+00 0.417D+00 0.239D+00
 Coeff:      0.344D+00 0.417D+00 0.239D+00
 Gap=     0.053 Goal=   None    Shift=    0.000
 RMSDP=2.53D-03 MaxDP=8.06D-02 DE= 1.12D-01 OVMax= 2.66D-01

 Cycle   4  Pass 1  IDiag  1:
 E= -168.474440992008     Delta-E=       -0.162641087746 Rises=F Damp=F
 DIIS: error= 7.21D-03 at cycle   4 NSaved=   4.
 NSaved= 4 IEnMin= 4 EnMin= -168.474440992008     IErMin= 4 ErrMin= 7.21D-03
 ErrMax= 7.21D-03  0.00D+00 EMaxC= 1.00D+00 BMatC= 5.89D-03 BMatP= 2.01D-02
 IDIUse=1 WtCom= 1.00D+00 WtEn= 0.00D+00
 Coeff-Com:  0.782D-01 0.184D+00 0.155D+00 0.583D+00
 Coeff:      0.782D-01 0.184D+00 0.155D+00 0.583D+00
 Gap=     0.062 Goal=   None    Shift=    0.000
 RMSDP=5.33D-04 MaxDP=1.87D-02 DE=-1.63D-01 OVMax= 4.10D-02

 Cycle   5  Pass 1  IDiag  1:
 E= -168.475620280038     Delta-E=       -0.001179288030 Rises=F Damp=F
 DIIS: error= 5.33D-03 at cycle   5 NSaved=   5.
 NSaved= 5 IEnMin= 5 EnMin= -168.475620280038     IErMin= 5 ErrMin= 5.33D-03
 ErrMax= 5.33D-03  0.00D+00 EMaxC= 1.00D+00 BMatC= 4.55D-03 BMatP= 5.89D-03
 IDIUse=1 WtCom= 1.00D+00 WtEn= 0.00D+00
 Coeff-Com: -0.916D-02 0.426D-01 0.514D-01 0.477D+00 0.438D+00
 Coeff:     -0.916D-02 0.426D-01 0.514D-01 0.477D+00 0.438D+00
 Gap=     0.063 Goal=   None    Shift=    0.000
 RMSDP=2.56D-04 MaxDP=7.61D-03 DE=-1.18D-03 OVMax= 2.55D-02

 Cycle   6  Pass 1  IDiag  1:
 E= -168.478838246737     Delta-E=       -0.003217966699 Rises=F Damp=F
 DIIS: error= 6.77D-04 at cycle   6 NSaved=   6.
 NSaved= 6 IEnMin= 6 EnMin= -168.478838246737     IErMin= 6 ErrMin= 6.77D-04
 ErrMax= 6.77D-04  0.00D+00 EMaxC= 1.00D+00 BMatC= 7.45D-05 BMatP= 4.55D-03
 IDIUse=1 WtCom= 1.00D+00 WtEn= 0.00D+00
 Coeff-Com: -0.297D-02-0.309D-02-0.440D-03 0.130D+00 0.184D+00 0.693D+00
 Coeff:     -0.297D-02-0.309D-02-0.440D-03 0.130D+00 0.184D+00 0.693D+00
 Gap=     0.064 Goal=   None    Shift=    0.000
 RMSDP=6.61D-05 MaxDP=1.75D-03 DE=-3.22D-03 OVMax= 5.95D-03

 Cycle   7  Pass 1  IDiag  1:
 E= -168.478891724214     Delta-E=       -0.000053477477 Rises=F Damp=F
 DIIS: error= 4.33D-04 at cycle   7 NSaved=   7.
 NSaved= 7 IEnMin= 7 EnMin= -168.478891724214     IErMin= 7 ErrMin= 4.33D-04
 ErrMax= 4.33D-04  0.00D+00 EMaxC= 1.00D+00 BMatC= 2.59D-05 BMatP= 7.45D-05
 IDIUse=1 WtCom= 1.00D+00 WtEn= 0.00D+00
 Coeff-Com: -0.116D-02-0.889D-03-0.962D-02 0.230D-01 0.308D-01 0.217D+00
 Coeff-Com:  0.740D+00
 Coeff:     -0.116D-02-0.889D-03-0.962D-02 0.230D-01 0.308D-01 0.217D+00
 Coeff:      0.740D+00
 Gap=     0.064 Goal=   None    Shift=    0.000
 RMSDP=2.03D-05 MaxDP=5.29D-04 DE=-5.35D-05 OVMax= 2.27D-03

 Cycle   8  Pass 1  IDiag  1:
 E= -168.478914096334     Delta-E=       -0.000022372120 Rises=F Damp=F
 DIIS: error= 2.42D-04 at cycle   8 NSaved=   8.
 NSaved= 8 IEnMin= 8 EnMin= -168.478914096334     IErMin= 8 ErrMin= 2.42D-04
 ErrMax= 2.42D-04  0.00D+00 EMaxC= 1.00D+00 BMatC= 6.92D-06 BMatP= 2.59D-05
 IDIUse=1 WtCom= 1.00D+00 WtEn= 0.00D+00
 Coeff-Com:  0.424D-03 0.193D-02-0.440D-02-0.639D-02-0.239D-01-0.912D-01
 Coeff-Com: -0.153D+00 0.128D+01
 Coeff:      0.424D-03 0.193D-02-0.440D-02-0.639D-02-0.239D-01-0.912D-01
 Coeff:     -0.153D+00 0.128D+01
 Gap=     0.064 Goal=   None    Shift=    0.000
 RMSDP=1.72D-05 MaxDP=3.85D-04 DE=-2.24D-05 OVMax= 2.03D-03

 Cycle   9  Pass 1  IDiag  1:
 E= -168.478921372173     Delta-E=       -0.000007275839 Rises=F Damp=F
 DIIS: error= 7.98D-05 at cycle   9 NSaved=   9.
 NSaved= 9 IEnMin= 9 EnMin= -168.478921372173     IErMin= 9 ErrMin= 7.98D-05
 ErrMax= 7.98D-05  0.00D+00 EMaxC= 1.00D+00 BMatC= 7.40D-07 BMatP= 6.92D-06
 IDIUse=1 WtCom= 1.00D+00 WtEn= 0.00D+00
 Coeff-Com:  0.151D-03 0.891D-03-0.750D-03 0.551D-03-0.620D-02-0.326D-01
 Coeff-Com: -0.150D+00 0.255D+00 0.933D+00
 Coeff:      0.151D-03 0.891D-03-0.750D-03 0.551D-03-0.620D-02-0.326D-01
 Coeff:     -0.150D+00 0.255D+00 0.933D+00
 Gap=     0.064 Goal=   None    Shift=    0.000
 RMSDP=4.59D-06 MaxDP=1.39D-04 DE=-7.28D-06 OVMax= 6.57D-04

 Cycle  10  Pass 1  IDiag  1:
 E= -168.478922148922     Delta-E=       -0.000000776748 Rises=F Damp=F
 DIIS: error= 8.80D-06 at cycle  10 NSaved=  10.
 NSaved=10 IEnMin=10 EnMin= -168.478922148922     IErMin=10 ErrMin= 8.80D-06
 ErrMax= 8.80D-06  0.00D+00 EMaxC= 1.00D+00 BMatC= 9.08D-09 BMatP= 7.40D-07
 IDIUse=1 WtCom= 1.00D+00 WtEn= 0.00D+00
 Coeff-Com: -0.294D-06-0.153D-05 0.121D-03 0.122D-02 0.871D-03 0.417D-02
 Coeff-Com: -0.206D-01-0.686D-01 0.251D+00 0.832D+00
 Coeff:     -0.294D-06-0.153D-05 0.121D-03 0.122D-02 0.871D-03 0.417D-02
 Coeff:     -0.206D-01-0.686D-01 0.251D+00 0.832D+00
 Gap=     0.064 Goal=   None    Shift=    0.000
 RMSDP=7.11D-07 MaxDP=1.36D-05 DE=-7.77D-07 OVMax= 7.63D-05

 Cycle  11  Pass 1  IDiag  1:
 E= -168.478922157901     Delta-E=       -0.000000008980 Rises=F Damp=F
 DIIS: error= 1.35D-06 at cycle  11 NSaved=  11.
 NSaved=11 IEnMin=11 EnMin= -168.478922157901     IErMin=11 ErrMin= 1.35D-06
 ErrMax= 1.35D-06  0.00D+00 EMaxC= 1.00D+00 BMatC= 2.80D-10 BMatP= 9.08D-09
 IDIUse=1 WtCom= 1.00D+00 WtEn= 0.00D+00
 Coeff-Com: -0.121D-05-0.129D-04 0.297D-04-0.362D-05 0.103D-04 0.300D-03
 Coeff-Com:  0.350D-03-0.513D-02 0.995D-02 0.523D-01 0.942D+00
 Coeff:     -0.121D-05-0.129D-04 0.297D-04-0.362D-05 0.103D-04 0.300D-03
 Coeff:      0.350D-03-0.513D-02 0.995D-02 0.523D-01 0.942D+00
 Gap=     0.064 Goal=   None    Shift=    0.000
 RMSDP=1.28D-07 MaxDP=3.66D-06 DE=-8.98D-09 OVMax= 1.41D-05

 Cycle  12  Pass 1  IDiag  1:
 E= -168.478922158217     Delta-E=       -0.000000000316 Rises=F Damp=F
 DIIS: error= 2.68D-07 at cycle  12 NSaved=  12.
 NSaved=12 IEnMin=12 EnMin= -168.478922158217     IErMin=12 ErrMin= 2.68D-07
 ErrMax= 2.68D-07  0.00D+00 EMaxC= 1.00D+00 BMatC= 7.97D-12 BMatP= 2.80D-10
 IDIUse=1 WtCom= 1.00D+00 WtEn= 0.00D+00
 Coeff-Com:  0.401D-06-0.117D-05 0.385D-05-0.588D-04-0.381D-04-0.187D-03
 Coeff-Com:  0.140D-02 0.173D-02-0.137D-01-0.414D-01 0.153D+00 0.899D+00
 Coeff:      0.401D-06-0.117D-05 0.385D-05-0.588D-04-0.381D-04-0.187D-03
 Coeff:      0.140D-02 0.173D-02-0.137D-01-0.414D-01 0.153D+00 0.899D+00
 Gap=     0.064 Goal=   None    Shift=    0.000
 RMSDP=3.00D-08 MaxDP=6.93D-07 DE=-3.16D-10 OVMax= 3.96D-06

 Cycle  13  Pass 1  IDiag  1:
 E= -168.478922158226     Delta-E=       -0.000000000009 Rises=F Damp=F
 DIIS: error= 1.24D-07 at cycle  13 NSaved=  13.
 NSaved=13 IEnMin=13 EnMin= -168.478922158226     IErMin=13 ErrMin= 1.24D-07
 ErrMax= 1.24D-07  0.00D+00 EMaxC= 1.00D+00 BMatC= 1.94D-12 BMatP= 7.97D-12
 IDIUse=1 WtCom= 1.00D+00 WtEn= 0.00D+00
 Coeff-Com:  0.172D-06 0.809D-07 0.390D-06-0.129D-04-0.129D-04-0.514D-04
 Coeff-Com:  0.270D-03 0.610D-03-0.236D-02-0.886D-02-0.114D-01 0.138D+00
 Coeff-Com:  0.884D+00
 Coeff:      0.172D-06 0.809D-07 0.390D-06-0.129D-04-0.129D-04-0.514D-04
 Coeff:      0.270D-03 0.610D-03-0.236D-02-0.886D-02-0.114D-01 0.138D+00
 Coeff:      0.884D+00
 Gap=     0.064 Goal=   None    Shift=    0.000
 RMSDP=9.02D-09 MaxDP=2.14D-07 DE=-9.15D-12 OVMax= 8.35D-07

 SCF Done:  E(RB3LYP) =  -168.478922158     A.U. after   13 cycles
            NFock= 13  Conv=0.90D-08     -V/T= 2.0035
 KE= 1.678971275816D+02 PE=-5.133015731749D+02 EE= 1.177615375726D+02
 Leave Link  502 at Tue Jan 26 00:25:21 2021, MaxMem=  6291456000 cpu:              28.4 elap:               1.9
 (Enter /home/orgChemistry/bin/gaussian16-C.01/g16/l701.exe)
 ... and contract with generalized density number  0.
 Compute integral first derivatives.
 Leave Link  701 at Tue Jan 26 00:25:21 2021, MaxMem=  6291456000 cpu:               2.9 elap:               0.2
 (Enter /home/orgChemistry/bin/gaussian16-C.01/g16/l702.exe)
 L702 exits ... SP integral derivatives will be done elsewhere.
 Leave Link  702 at Tue Jan 26 00:25:21 2021, MaxMem=  6291456000 cpu:               0.6 elap:               0.1
 (Enter /home/orgChemistry/bin/gaussian16-C.01/g16/l703.exe)
 Integral derivatives from FoFJK, PRISM(SPDF).
 Compute integral first derivatives, UseDBF=F ICtDFT=           0.
 Calling FoFJK, ICntrl=      2127 FMM=F ISym2X=0 I1Cent= 0 IOpClX= 0 NMat=1 NMatS=1 NMatT=0.
 FoFJK:  IHMeth= 1 ICntrl=    2127 DoSepK=F KAlg= 0 I1Cent=           0 FoldK=F
 IRaf=         0 NMat=       1 IRICut=       1 DoRegI=T DoRafI=F ISym2E= 0 IDoP0=0 IntGTp=1.
 FoFCou: FMM=F IPFlag=           0 FMFlag=      100000 FMFlg1=         800
         NFxFlg=           0 DoJE=F BraDBF=F KetDBF=F FulRan=T
         wScrn=  0.000000 ICntrl=      2127 IOpCl=  0 I1Cent=           0 NGrid=           0
         NMat0=    1 NMatS0=      1 NMatT0=    0 NMatD0=    1 NMtDS0=    0 NMtDT0=    0
 Symmetry not used in FoFCou.
 Leave Link  703 at Tue Jan 26 00:25:22 2021, MaxMem=  6291456000 cpu:              20.3 elap:               0.9
 (Enter /home/orgChemistry/bin/gaussian16-C.01/g16/l716.exe)
 Dipole        = 1.71524292D-01 2.86354367D-01-1.64972280D-05
 ***** Axes restored to original set *****
 -------------------------------------------------------------------
 Center     Atomic                   Forces (Hartrees/Bohr)
 Number     Number              X              Y              Z
 -------------------------------------------------------------------
      1        6           0.027457001   -0.041775938    0.017630217
      2        7          -0.024650820    0.024506681   -0.058848308
      3        8           0.004566634    0.003272807    0.036754664
      4        1          -0.007372815    0.013996451    0.004463427
 -------------------------------------------------------------------
 Cartesian Forces:  Max     0.058848308 RMS     0.027589183
 Leave Link  716 at Tue Jan 26 00:25:22 2021, MaxMem=  6291456000 cpu:               0.9 elap:               0.1
 (Enter /home/orgChemistry/bin/gaussian16-C.01/g16/l103.exe)

 GradGradGradGradGradGradGradGradGradGradGradGradGradGradGradGradGradGrad
 Berny optimization.
 Using GEDIIS/GDIIS optimizer.
 FormGI is forming the generalized inverse of G from B-inverse, IUseBI=4.
 Internal  Forces:  Max     0.059399924 RMS     0.031163984
 Search for a local minimum.
 Step number   2 out of a maximum of   20
 All quantities printed in internal units (Hartrees-Bohrs-Radians)
 RMS Force = .31164D-01 SwitMx=.10000D-02 MixMth= 1
 Mixed Optimization -- RFO/linear search
 Update second derivatives using D2CorX and points    1    2
 DE= -1.33D-02 DEPred=-6.66D-03 R= 1.99D+00
 TightC=F SS=  1.41D+00  RLast= 2.18D-01 DXNew= 5.0454D-01 6.5335D-01
 Trust test= 1.99D+00 RLast= 2.18D-01 DXMaxT set to 5.05D-01
 The second derivative matrix:
                          R1        R2        R3        A1        A2
           R1           0.37868
           R2          -0.00341   0.32681
           R3          -0.16148   0.08142   3.27532
           A1          -0.18514   0.09563   2.59063   3.21743
           A2          -0.06016  -0.00382  -0.30271  -0.34155   0.05501
           D1           0.00000  -0.00000  -0.00004  -0.00004   0.00000
                          D1
           D1           0.01159
 ITU=  1  0
 Use linear search instead of GDIIS.
     Eigenvalues ---    0.00049   0.01159   0.32379   0.38487   0.65803
     Eigenvalues ---    5.88605
 RFO step:  Lambda=-5.83729056D-02 EMin= 4.87211198D-04
 Skip linear search -- no minimum in search direction.
 Maximum step size (   0.505) exceeded in Quadratic search.
    -- Step size scaled by   0.509
 Iteration  1 RMS(Cart)=  0.19028663 RMS(Int)=  0.11905438
 Iteration  2 RMS(Cart)=  0.14861679 RMS(Int)=  0.03850032
 Iteration  3 RMS(Cart)=  0.06996887 RMS(Int)=  0.00266691
 Iteration  4 RMS(Cart)=  0.00200487 RMS(Int)=  0.00000048
 Iteration  5 RMS(Cart)=  0.00000049 RMS(Int)=  0.00000000
 ITry= 1 IFail=0 DXMaxC= 6.59D-01 DCOld= 1.00D+10 DXMaxT= 5.05D-01 DXLimC= 3.00D+00 Rises=F
 Variable       Old X    -DE/DX   Delta X   Delta X   Delta X     New X
                                 (Linear)    (Quad)   (Total)
    R1        2.67588  -0.02101   0.00000  -0.11446  -0.11446   2.56141
    R2        2.10549   0.00269   0.00000   0.01095   0.01095   2.11643
    R3        2.24879   0.02617   0.00000  -0.01414  -0.01414   2.23466
    A1        1.90689   0.03414   0.00000  -0.04132  -0.04132   1.86556
    A2        1.89691  -0.05940   0.00000  -0.48931  -0.48931   1.40759
    D1       -0.00001  -0.00000   0.00000  -0.00001  -0.00001  -0.00002
         Item               Value     Threshold  Converged?
 Maximum Force            0.059400     0.000450     NO 
 RMS     Force            0.031164     0.000300     NO 
 Maximum Displacement     0.659379     0.001800     NO 
 RMS     Displacement     0.402559     0.001200     NO 
 Predicted change in Energy=-2.958307D-02
 Lowest energy point so far.  Saving SCF results.
 GradGradGradGradGradGradGradGradGradGradGradGradGradGradGradGradGradGrad

 Leave Link  103 at Tue Jan 26 00:25:22 2021, MaxMem=  6291456000 cpu:               9.6 elap:               0.5
 (Enter /home/orgChemistry/bin/gaussian16-C.01/g16/l202.exe)
                          Input orientation:                          
 ---------------------------------------------------------------------
 Center     Atomic      Atomic             Coordinates (Angstroms)
 Number     Number       Type             X           Y           Z
 ---------------------------------------------------------------------
      1          6           0       -2.936659    3.597261    0.416500
      2          7           0       -2.443382    2.541706   -0.276105
      3          8           0       -2.079769    2.245977    0.809576
      4          1           0       -2.656905    3.441598    1.489735
 ---------------------------------------------------------------------
                    Distance matrix (angstroms):
                    1          2          3          4
     1  C    0.000000
     2  N    1.355441   0.000000
     3  O    1.647647   1.182529   0.000000
     4  H    1.119967   1.993386   1.491714   0.000000
 Stoichiometry    CHNO
 Framework group  C1[X(CHNO)]
 Deg. of freedom     6
 Full point group                 C1      NOp   1
 RotChk:  IX=1 Diff= 9.90D-02
 Largest Abelian subgroup         C1      NOp   1
 Largest concise Abelian subgroup C1      NOp   1
                         Standard orientation:                         
 ---------------------------------------------------------------------
 Center     Atomic      Atomic             Coordinates (Angstroms)
 Number     Number       Type             X           Y           Z
 ---------------------------------------------------------------------
      1          6           0        0.957439    0.108727    0.000002
      2          7           0       -0.140841   -0.685630   -0.000002
      3          8           0       -0.668972    0.372412    0.000002
      4          1           0        0.593029    1.167751   -0.000013
 ---------------------------------------------------------------------
 Rotational constants (GHZ):          49.4100534          26.8246563          17.3858824
 Leave Link  202 at Tue Jan 26 00:25:22 2021, MaxMem=  6291456000 cpu:               0.8 elap:               0.1
 (Enter /home/orgChemistry/bin/gaussian16-C.01/g16/l301.exe)
 Standard basis: 6-311++G(3df,3pd) (5D, 7F)
 Ernie: Thresh=  0.10000D-02 Tol=  0.10000D-05 Strict=F.
 There are   154 symmetry adapted cartesian basis functions of A   symmetry.
 There are   135 symmetry adapted basis functions of A   symmetry.
   135 basis functions,   195 primitive gaussians,   154 cartesian basis functions
    11 alpha electrons       11 beta electrons
       nuclear repulsion energy        64.4044125607 Hartrees.
 IExCor=  402 DFT=T Ex+Corr=B3LYP ExCW=0 ScaHFX=  0.200000
 ScaDFX=  0.800000  0.720000  1.000000  0.810000 ScalE2=  1.000000  1.000000
 IRadAn=      5 IRanWt=     -1 IRanGd=            0 ICorTp=0 IEmpDi=  4
 NAtoms=    4 NActive=    4 NUniq=    4 SFac= 1.00D+00 NAtFMM=   60 NAOKFM=F Big=F
 Integral buffers will be    131072 words long.
 Raffenetti 2 integral format.
 Two-electron integral symmetry is turned on.
 Leave Link  301 at Tue Jan 26 00:25:23 2021, MaxMem=  6291456000 cpu:               2.2 elap:               0.2
 (Enter /home/orgChemistry/bin/gaussian16-C.01/g16/l302.exe)
 NPDir=0 NMtPBC=     1 NCelOv=     1 NCel=       1 NClECP=     1 NCelD=      1
         NCelK=      1 NCelE2=     1 NClLst=     1 CellRange=     0.0.
 One-electron integrals computed using PRISM.
 One-electron integral symmetry used in STVInt
 NBasis=   135 RedAO= T EigKep=  2.04D-04  NBF=   135
 NBsUse=   135 1.00D-06 EigRej= -1.00D+00 NBFU=   135
 Precomputing XC quadrature grid using
 IXCGrd= 4 IRadAn=           5 IRanWt=          -1 IRanGd=           0 AccXCQ= 0.00D+00.
 Generated NRdTot=       0 NPtTot=           0 NUsed=           0 NTot=          32
 NSgBfM=   154   154   154   154   154 MxSgAt=     4 MxSgA2=     4.
 Leave Link  302 at Tue Jan 26 00:25:23 2021, MaxMem=  6291456000 cpu:               2.9 elap:               0.1
 (Enter /home/orgChemistry/bin/gaussian16-C.01/g16/l303.exe)
 DipDrv:  MaxL=1.
 Leave Link  303 at Tue Jan 26 00:25:23 2021, MaxMem=  6291456000 cpu:               0.5 elap:               0.1
 (Enter /home/orgChemistry/bin/gaussian16-C.01/g16/l401.exe)
 Initial guess from the checkpoint file:  "file_name.chk"
 B after Tr=    -0.000000   -0.000000   -0.000000
         Rot=    0.999876    0.000001   -0.000000    0.015719 Ang=   1.80 deg.
 Guess basis will be translated and rotated to current coordinates.
 JPrj=2 DoOrth=T DoCkMO=T.
 Generating alternative initial guess.
 ExpMin= 3.60D-02 ExpMax= 8.59D+03 ExpMxC= 1.30D+03 IAcc=3 IRadAn=         5 AccDes= 0.00D+00
 Harris functional with IExCor=  402 and IRadAn=       5 diagonalized for initial guess.
 HarFok:  IExCor=  402 AccDes= 0.00D+00 IRadAn=         5 IDoV= 1 UseB2=F ITyADJ=14
 ICtDFT=  3500011 ScaDFX=  1.000000  1.000000  1.000000  1.000000
 FoFCou: FMM=F IPFlag=           0 FMFlag=      100000 FMFlg1=           0
         NFxFlg=           0 DoJE=T BraDBF=F KetDBF=T FulRan=T
         wScrn=  0.000000 ICntrl=       500 IOpCl=  0 I1Cent=   200000004 NGrid=           0
         NMat0=    1 NMatS0=      1 NMatT0=    0 NMatD0=    1 NMtDS0=    0 NMtDT0=    0
 Petite list used in FoFCou.
 Harris En= -168.444320789820    
 Leave Link  401 at Tue Jan 26 00:25:23 2021, MaxMem=  6291456000 cpu:               5.8 elap:               0.3
 (Enter /home/orgChemistry/bin/gaussian16-C.01/g16/l502.exe)
 Keep R1 ints in memory in canonical form, NReq=65669086.
 FoFCou: FMM=F IPFlag=           0 FMFlag=           0 FMFlg1=           0
         NFxFlg=           0 DoJE=F BraDBF=F KetDBF=F FulRan=T
         wScrn=  0.000000 ICntrl=       600 IOpCl=  0 I1Cent=           0 NGrid=           0
         NMat0=    1 NMatS0=   9180 NMatT0=    0 NMatD0=    1 NMtDS0=    0 NMtDT0=    0
 Symmetry not used in FoFCou.
 Two-electron integral symmetry not used.
 Closed shell SCF:
 Using DIIS extrapolation, IDIIS=  1040.
 NGot=  6291456000 LenX=  6249262622 LenY=  6249238465
 Requested convergence on RMS density matrix=1.00D-08 within 128 cycles.
 Requested convergence on MAX density matrix=1.00D-06.
 Requested convergence on             energy=1.00D-06.
 No special actions if energy rises.

 Cycle   1  Pass 1  IDiag  1:
 E= -168.320497114570    
 DIIS: error= 2.34D-02 at cycle   1 NSaved=   1.
 NSaved= 1 IEnMin= 1 EnMin= -168.320497114570     IErMin= 1 ErrMin= 2.34D-02
 ErrMax= 2.34D-02  0.00D+00 EMaxC= 1.00D-01 BMatC= 1.17D-01 BMatP= 1.17D-01
 IDIUse=3 WtCom= 7.66D-01 WtEn= 2.34D-01
 Coeff-Com:  0.100D+01
 Coeff-En:   0.100D+01
 Coeff:      0.100D+01
 Recover alternate guess density for next cycle.
 RMSDP=3.10D-03 MaxDP=6.16D-02              OVMax= 0.00D+00

 Cycle   2  Pass 1  IDiag  1:
 E= -168.446570167915     Delta-E=       -0.126073053346 Rises=F Damp=F
 DIIS: error= 1.37D-02 at cycle   2 NSaved=   2.
 NSaved= 2 IEnMin= 2 EnMin= -168.446570167915     IErMin= 2 ErrMin= 1.37D-02
 ErrMax= 1.37D-02  0.00D+00 EMaxC= 1.00D-01 BMatC= 3.04D-02 BMatP= 1.17D-01
 IDIUse=3 WtCom= 8.63D-01 WtEn= 1.37D-01
 Coeff-Com:  0.188D+00 0.812D+00
 Coeff-En:   0.000D+00 0.100D+01
 Coeff:      0.162D+00 0.838D+00
 Gap=     0.144 Goal=   None    Shift=    0.000
 RMSDP=1.87D-03 MaxDP=6.28D-02 DE=-1.26D-01 OVMax= 1.34D-01

 Cycle   3  Pass 1  IDiag  1:
 E= -168.428727109249     Delta-E=        0.017843058666 Rises=F Damp=F
 DIIS: error= 1.90D-02 at cycle   3 NSaved=   3.
 NSaved= 3 IEnMin= 2 EnMin= -168.446570167915     IErMin= 2 ErrMin= 1.37D-02
 ErrMax= 1.90D-02  0.00D+00 EMaxC= 1.00D-01 BMatC= 3.74D-02 BMatP= 3.04D-02
 IDIUse=2 WtCom= 0.00D+00 WtEn= 1.00D+00
 Coeff-En:   0.000D+00 0.668D+00 0.332D+00
 Coeff:      0.000D+00 0.668D+00 0.332D+00
 Gap=     0.133 Goal=   None    Shift=    0.000
 RMSDP=1.43D-03 MaxDP=3.07D-02 DE= 1.78D-02 OVMax= 1.34D-01

 Cycle   4  Pass 1  IDiag  1:
 E= -168.454737904568     Delta-E=       -0.026010795319 Rises=F Damp=F
 DIIS: error= 1.12D-02 at cycle   4 NSaved=   4.
 NSaved= 4 IEnMin= 4 EnMin= -168.454737904568     IErMin= 4 ErrMin= 1.12D-02
 ErrMax= 1.12D-02  0.00D+00 EMaxC= 1.00D-01 BMatC= 1.13D-02 BMatP= 3.04D-02
 IDIUse=3 WtCom= 8.88D-01 WtEn= 1.12D-01
 Coeff-Com:  0.137D-01 0.234D+00 0.292D+00 0.460D+00
 Coeff-En:   0.000D+00 0.000D+00 0.266D+00 0.734D+00
 Coeff:      0.122D-01 0.208D+00 0.289D+00 0.491D+00
 Gap=     0.140 Goal=   None    Shift=    0.000
 RMSDP=7.42D-04 MaxDP=2.43D-02 DE=-2.60D-02 OVMax= 5.46D-02

 Cycle   5  Pass 1  IDiag  1:
 E= -168.461891074710     Delta-E=       -0.007153170142 Rises=F Damp=F
 DIIS: error= 6.05D-03 at cycle   5 NSaved=   5.
 NSaved= 5 IEnMin= 5 EnMin= -168.461891074710     IErMin= 5 ErrMin= 6.05D-03
 ErrMax= 6.05D-03  0.00D+00 EMaxC= 1.00D-01 BMatC= 3.17D-03 BMatP= 1.13D-02
 IDIUse=3 WtCom= 9.40D-01 WtEn= 6.05D-02
 Coeff-Com: -0.126D-02 0.830D-01 0.144D+00 0.354D+00 0.420D+00
 Coeff-En:   0.000D+00 0.000D+00 0.000D+00 0.247D+00 0.753D+00
 Coeff:     -0.118D-02 0.780D-01 0.136D+00 0.347D+00 0.440D+00
 Gap=     0.140 Goal=   None    Shift=    0.000
 RMSDP=2.68D-04 MaxDP=6.75D-03 DE=-7.15D-03 OVMax= 2.02D-02

 Cycle   6  Pass 1  IDiag  1:
 E= -168.463961938399     Delta-E=       -0.002070863689 Rises=F Damp=F
 DIIS: error= 1.76D-03 at cycle   6 NSaved=   6.
 NSaved= 6 IEnMin= 6 EnMin= -168.463961938399     IErMin= 6 ErrMin= 1.76D-03
 ErrMax= 1.76D-03  0.00D+00 EMaxC= 1.00D-01 BMatC= 2.39D-04 BMatP= 3.17D-03
 IDIUse=3 WtCom= 9.82D-01 WtEn= 1.76D-02
 Coeff-Com:  0.537D-03 0.703D-02 0.299D-01 0.118D+00 0.276D+00 0.569D+00
 Coeff-En:   0.000D+00 0.000D+00 0.000D+00 0.000D+00 0.935D-01 0.907D+00
 Coeff:      0.527D-03 0.691D-02 0.293D-01 0.116D+00 0.273D+00 0.575D+00
 Gap=     0.140 Goal=   None    Shift=    0.000
 RMSDP=7.95D-05 MaxDP=1.86D-03 DE=-2.07D-03 OVMax= 5.17D-03

 Cycle   7  Pass 1  IDiag  1:
 E= -168.464151166208     Delta-E=       -0.000189227810 Rises=F Damp=F
 DIIS: error= 2.48D-04 at cycle   7 NSaved=   7.
 NSaved= 7 IEnMin= 7 EnMin= -168.464151166208     IErMin= 7 ErrMin= 2.48D-04
 ErrMax= 2.48D-04  0.00D+00 EMaxC= 1.00D-01 BMatC= 4.96D-06 BMatP= 2.39D-04
 IDIUse=3 WtCom= 9.98D-01 WtEn= 2.48D-03
 Coeff-Com: -0.336D-03-0.162D-02 0.279D-02 0.302D-01 0.845D-01 0.235D+00
 Coeff-Com:  0.649D+00
 Coeff-En:   0.000D+00 0.000D+00 0.000D+00 0.000D+00 0.000D+00 0.000D+00
 Coeff-En:   0.100D+01
 Coeff:     -0.335D-03-0.161D-02 0.278D-02 0.301D-01 0.843D-01 0.235D+00
 Coeff:      0.650D+00
 Gap=     0.140 Goal=   None    Shift=    0.000
 RMSDP=1.31D-05 MaxDP=4.74D-04 DE=-1.89D-04 OVMax= 6.19D-04

 Cycle   8  Pass 1  IDiag  1:
 E= -168.464155415907     Delta-E=       -0.000004249698 Rises=F Damp=F
 DIIS: error= 2.39D-05 at cycle   8 NSaved=   8.
 NSaved= 8 IEnMin= 8 EnMin= -168.464155415907     IErMin= 8 ErrMin= 2.39D-05
 ErrMax= 2.39D-05  0.00D+00 EMaxC= 1.00D-01 BMatC= 4.89D-08 BMatP= 4.96D-06
 IDIUse=1 WtCom= 1.00D+00 WtEn= 0.00D+00
 Coeff-Com: -0.346D-04-0.451D-03-0.508D-03 0.353D-02 0.105D-01 0.287D-01
 Coeff-Com:  0.108D+00 0.850D+00
 Coeff:     -0.346D-04-0.451D-03-0.508D-03 0.353D-02 0.105D-01 0.287D-01
 Coeff:      0.108D+00 0.850D+00
 Gap=     0.140 Goal=   None    Shift=    0.000
 RMSDP=2.10D-06 MaxDP=4.40D-05 DE=-4.25D-06 OVMax= 1.55D-04

 Cycle   9  Pass 1  IDiag  1:
 E= -168.464155461193     Delta-E=       -0.000000045286 Rises=F Damp=F
 DIIS: error= 1.53D-05 at cycle   9 NSaved=   9.
 NSaved= 9 IEnMin= 9 EnMin= -168.464155461193     IErMin= 9 ErrMin= 1.53D-05
 ErrMax= 1.53D-05  0.00D+00 EMaxC= 1.00D-01 BMatC= 1.58D-08 BMatP= 4.89D-08
 IDIUse=1 WtCom= 1.00D+00 WtEn= 0.00D+00
 Coeff-Com:  0.446D-05 0.155D-04-0.557D-03-0.808D-03-0.292D-02-0.112D-01
 Coeff-Com: -0.261D-01 0.263D+00 0.779D+00
 Coeff:      0.446D-05 0.155D-04-0.557D-03-0.808D-03-0.292D-02-0.112D-01
 Coeff:     -0.261D-01 0.263D+00 0.779D+00
 Gap=     0.140 Goal=   None    Shift=    0.000
 RMSDP=7.84D-07 MaxDP=1.96D-05 DE=-4.53D-08 OVMax= 3.88D-05

 Cycle  10  Pass 1  IDiag  1:
 E= -168.464155475485     Delta-E=       -0.000000014292 Rises=F Damp=F
 DIIS: error= 3.62D-06 at cycle  10 NSaved=  10.
 NSaved=10 IEnMin=10 EnMin= -168.464155475485     IErMin=10 ErrMin= 3.62D-06
 ErrMax= 3.62D-06  0.00D+00 EMaxC= 1.00D-01 BMatC= 1.47D-09 BMatP= 1.58D-08
 IDIUse=1 WtCom= 1.00D+00 WtEn= 0.00D+00
 Coeff-Com:  0.253D-05 0.163D-04-0.741D-04 0.198D-04-0.453D-03-0.111D-02
 Coeff-Com: -0.409D-02-0.473D-01-0.942D-01 0.115D+01
 Coeff:      0.253D-05 0.163D-04-0.741D-04 0.198D-04-0.453D-03-0.111D-02
 Coeff:     -0.409D-02-0.473D-01-0.942D-01 0.115D+01
 Gap=     0.140 Goal=   None    Shift=    0.000
 RMSDP=3.55D-07 MaxDP=7.00D-06 DE=-1.43D-08 OVMax= 2.64D-05

 Cycle  11  Pass 1  IDiag  1:
 E= -168.464155477096     Delta-E=       -0.000000001611 Rises=F Damp=F
 DIIS: error= 4.52D-07 at cycle  11 NSaved=  11.
 NSaved=11 IEnMin=11 EnMin= -168.464155477096     IErMin=11 ErrMin= 4.52D-07
 ErrMax= 4.52D-07  0.00D+00 EMaxC= 1.00D-01 BMatC= 2.61D-11 BMatP= 1.47D-09
 IDIUse=1 WtCom= 1.00D+00 WtEn= 0.00D+00
 Coeff-Com:  0.440D-06 0.155D-05 0.256D-05 0.682D-04 0.101D-03 0.472D-03
 Coeff-Com:  0.898D-03-0.247D-01-0.645D-01 0.232D+00 0.856D+00
 Coeff:      0.440D-06 0.155D-05 0.256D-05 0.682D-04 0.101D-03 0.472D-03
 Coeff:      0.898D-03-0.247D-01-0.645D-01 0.232D+00 0.856D+00
 Gap=     0.140 Goal=   None    Shift=    0.000
 RMSDP=6.03D-08 MaxDP=1.38D-06 DE=-1.61D-09 OVMax= 4.49D-06

 Cycle  12  Pass 1  IDiag  1:
 E= -168.464155477128     Delta-E=       -0.000000000032 Rises=F Damp=F
 DIIS: error= 7.32D-08 at cycle  12 NSaved=  12.
 NSaved=12 IEnMin=12 EnMin= -168.464155477128     IErMin=12 ErrMin= 7.32D-08
 ErrMax= 7.32D-08  0.00D+00 EMaxC= 1.00D-01 BMatC= 7.10D-13 BMatP= 2.61D-11
 IDIUse=1 WtCom= 1.00D+00 WtEn= 0.00D+00
 Coeff-Com: -0.454D-07-0.346D-06 0.266D-05 0.113D-04 0.448D-04 0.123D-03
 Coeff-Com:  0.325D-03-0.176D-02-0.489D-02-0.215D-01 0.941D-01 0.934D+00
 Coeff:     -0.454D-07-0.346D-06 0.266D-05 0.113D-04 0.448D-04 0.123D-03
 Coeff:      0.325D-03-0.176D-02-0.489D-02-0.215D-01 0.941D-01 0.934D+00
 Gap=     0.140 Goal=   None    Shift=    0.000
 RMSDP=9.78D-09 MaxDP=1.94D-07 DE=-3.16D-11 OVMax= 7.06D-07

 SCF Done:  E(RB3LYP) =  -168.464155477     A.U. after   12 cycles
            NFock= 12  Conv=0.98D-08     -V/T= 2.0006
 KE= 1.683698541520D+02 PE=-5.240818988155D+02 EE= 1.228434766256D+02
 Leave Link  502 at Tue Jan 26 00:25:25 2021, MaxMem=  6291456000 cpu:              33.7 elap:               2.3
 (Enter /home/orgChemistry/bin/gaussian16-C.01/g16/l701.exe)
 ... and contract with generalized density number  0.
 Compute integral first derivatives.
 Leave Link  701 at Tue Jan 26 00:25:26 2021, MaxMem=  6291456000 cpu:               2.9 elap:               0.2
 (Enter /home/orgChemistry/bin/gaussian16-C.01/g16/l702.exe)
 L702 exits ... SP integral derivatives will be done elsewhere.
 Leave Link  702 at Tue Jan 26 00:25:26 2021, MaxMem=  6291456000 cpu:               0.7 elap:               0.1
 (Enter /home/orgChemistry/bin/gaussian16-C.01/g16/l703.exe)
 Integral derivatives from FoFJK, PRISM(SPDF).
 Compute integral first derivatives, UseDBF=F ICtDFT=           0.
 Calling FoFJK, ICntrl=      2127 FMM=F ISym2X=0 I1Cent= 0 IOpClX= 0 NMat=1 NMatS=1 NMatT=0.
 FoFJK:  IHMeth= 1 ICntrl=    2127 DoSepK=F KAlg= 0 I1Cent=           0 FoldK=F
 IRaf=         0 NMat=       1 IRICut=       1 DoRegI=T DoRafI=F ISym2E= 0 IDoP0=0 IntGTp=1.
 FoFCou: FMM=F IPFlag=           0 FMFlag=      100000 FMFlg1=         800
         NFxFlg=           0 DoJE=F BraDBF=F KetDBF=F FulRan=T
         wScrn=  0.000000 ICntrl=      2127 IOpCl=  0 I1Cent=           0 NGrid=           0
         NMat0=    1 NMatS0=      1 NMatT0=    0 NMatD0=    1 NMtDS0=    0 NMtDT0=    0
 Symmetry not used in FoFCou.
 Leave Link  703 at Tue Jan 26 00:25:26 2021, MaxMem=  6291456000 cpu:              17.0 elap:               0.7
 (Enter /home/orgChemistry/bin/gaussian16-C.01/g16/l716.exe)
 Dipole        = 7.94242895D-02 4.81097621D-01-1.10106093D-05
 ***** Axes restored to original set *****
 -------------------------------------------------------------------
 Center     Atomic                   Forces (Hartrees/Bohr)
 Number     Number              X              Y              Z
 -------------------------------------------------------------------
      1        6          -0.005545119   -0.006167341   -0.051887609
      2        7          -0.078833607    0.098239606   -0.122463039
      3        8           0.099127916   -0.123268375    0.154849324
      4        1          -0.014749190    0.031196110    0.019501323
 -------------------------------------------------------------------
 Cartesian Forces:  Max     0.154849324 RMS     0.083762983
 Leave Link  716 at Tue Jan 26 00:25:27 2021, MaxMem=  6291456000 cpu:               0.8 elap:               0.1
 (Enter /home/orgChemistry/bin/gaussian16-C.01/g16/l103.exe)

 GradGradGradGradGradGradGradGradGradGradGradGradGradGradGradGradGradGrad
 Berny optimization.
 Using GEDIIS/GDIIS optimizer.
 FormGI is forming the generalized inverse of G from B-inverse, IUseBI=4.
 Internal  Forces:  Max     0.203475149 RMS     0.119784481
 Search for a local minimum.
 Step number   3 out of a maximum of   20
 All quantities printed in internal units (Hartrees-Bohrs-Radians)
 RMS Force = .11978D+00 SwitMx=.10000D-02 MixMth= 1
 Mixed Optimization -- RFO/linear search
 Update second derivatives using D2CorX and points    1    3    2
 DE=  1.48D-02 DEPred=-2.96D-02 R=-4.99D-01
 Trust test=-4.99D-01 RLast= 5.05D-01 DXMaxT set to 2.52D-01
 The second derivative matrix:
                          R1        R2        R3        A1        A2
           R1           0.32663
           R2           0.00933   0.32531
           R3           0.09017   0.05386   2.77366
           A1           0.11925   0.04493   1.61886   1.78684
           A2          -0.02484   0.01604   0.12563  -0.12921   0.53292
           D1           0.00000  -0.00000  -0.00004  -0.00005   0.00000
                          D1
           D1           0.01159
 ITU= -1  1  0
 Use linear search instead of GDIIS.
     Eigenvalues ---    0.01159   0.31117   0.32331   0.38439   0.74672
     Eigenvalues ---    3.97978
 RFO step:  Lambda=-6.33957361D-03 EMin= 1.15920270D-02
 Quartic linear search produced a step of -0.53381.
 Iteration  1 RMS(Cart)=  0.14787669 RMS(Int)=  0.02358005
 Iteration  2 RMS(Cart)=  0.03717731 RMS(Int)=  0.00069029
 Iteration  3 RMS(Cart)=  0.00069227 RMS(Int)=  0.00000017
 Iteration  4 RMS(Cart)=  0.00000024 RMS(Int)=  0.00000000
 ITry= 1 IFail=0 DXMaxC= 3.18D-01 DCOld= 1.00D+10 DXMaxT= 2.52D-01 DXLimC= 3.00D+00 Rises=F
 Variable       Old X    -DE/DX   Delta X   Delta X   Delta X     New X
                                 (Linear)    (Quad)   (Total)
    R1        2.56141   0.01033   0.06110  -0.07316  -0.01206   2.54935
    R2        2.11643   0.01067  -0.00584   0.02047   0.01463   2.13106
    R3        2.23466   0.20348   0.00755   0.04956   0.05710   2.29176
    A1        1.86556   0.08079   0.02206  -0.01378   0.00828   1.87384
    A2        1.40759   0.19478   0.26120  -0.02317   0.23803   1.64563
    D1       -0.00002  -0.00000   0.00000  -0.00001  -0.00000  -0.00002
         Item               Value     Threshold  Converged?
 Maximum Force            0.203475     0.000450     NO 
 RMS     Force            0.119784     0.000300     NO 
 Maximum Displacement     0.318151     0.001800     NO 
 RMS     Displacement     0.181415     0.001200     NO 
 Predicted change in Energy=-2.185769D-02
 GradGradGradGradGradGradGradGradGradGradGradGradGradGradGradGradGradGrad

 Leave Link  103 at Tue Jan 26 00:25:27 2021, MaxMem=  6291456000 cpu:               9.0 elap:               0.5
 (Enter /home/orgChemistry/bin/gaussian16-C.01/g16/l202.exe)
                          Input orientation:                          
 ---------------------------------------------------------------------
 Center     Atomic      Atomic             Coordinates (Angstroms)
 Number     Number       Type             X           Y           Z
 ---------------------------------------------------------------------
      1          6           0       -2.965043    3.642862    0.406262
      2          7           0       -2.453818    2.571919   -0.235369
      3          8           0       -1.988666    2.077618    0.769645
      4          1           0       -2.709188    3.534142    1.499168
 ---------------------------------------------------------------------
                    Distance matrix (angstroms):
                    1          2          3          4
     1  C    0.000000
     2  N    1.349059   0.000000
     3  O    1.880252   1.212746   0.000000
     4  H    1.127708   1.999926   1.781240   0.000000
 Stoichiometry    CHNO
 Framework group  C1[X(CHNO)]
 Deg. of freedom     6
 Full point group                 C1      NOp   1
 RotChk:  IX=2 Diff= 4.06D-02
 Largest Abelian subgroup         C1      NOp   1
 Largest concise Abelian subgroup C1      NOp   1
                         Standard orientation:                         
 ---------------------------------------------------------------------
 Center     Atomic      Atomic             Coordinates (Angstroms)
 Number     Number       Type             X           Y           Z
 ---------------------------------------------------------------------
      1          6           0        1.047860    0.140306    0.000003
      2          7           0       -0.055082   -0.636533   -0.000002
      3          8           0       -0.825600    0.299979    0.000001
      4          1           0        0.703215    1.214059   -0.000013
 ---------------------------------------------------------------------
 Rotational constants (GHZ):          57.7339736          20.4977066          15.1270438
 Leave Link  202 at Tue Jan 26 00:25:27 2021, MaxMem=  6291456000 cpu:               0.8 elap:               0.1
 (Enter /home/orgChemistry/bin/gaussian16-C.01/g16/l301.exe)
 Standard basis: 6-311++G(3df,3pd) (5D, 7F)
 Ernie: Thresh=  0.10000D-02 Tol=  0.10000D-05 Strict=F.
 There are   154 symmetry adapted cartesian basis functions of A   symmetry.
 There are   135 symmetry adapted basis functions of A   symmetry.
   135 basis functions,   195 primitive gaussians,   154 cartesian basis functions
    11 alpha electrons       11 beta electrons
       nuclear repulsion energy        61.4636264911 Hartrees.
 IExCor=  402 DFT=T Ex+Corr=B3LYP ExCW=0 ScaHFX=  0.200000
 ScaDFX=  0.800000  0.720000  1.000000  0.810000 ScalE2=  1.000000  1.000000
 IRadAn=      5 IRanWt=     -1 IRanGd=            0 ICorTp=0 IEmpDi=  4
 NAtoms=    4 NActive=    4 NUniq=    4 SFac= 1.00D+00 NAtFMM=   60 NAOKFM=F Big=F
 Integral buffers will be    131072 words long.
 Raffenetti 2 integral format.
 Two-electron integral symmetry is turned on.
 Leave Link  301 at Tue Jan 26 00:25:27 2021, MaxMem=  6291456000 cpu:               1.3 elap:               0.1
 (Enter /home/orgChemistry/bin/gaussian16-C.01/g16/l302.exe)
 NPDir=0 NMtPBC=     1 NCelOv=     1 NCel=       1 NClECP=     1 NCelD=      1
         NCelK=      1 NCelE2=     1 NClLst=     1 CellRange=     0.0.
 One-electron integrals computed using PRISM.
 One-electron integral symmetry used in STVInt
 NBasis=   135 RedAO= T EigKep=  2.09D-04  NBF=   135
 NBsUse=   135 1.00D-06 EigRej= -1.00D+00 NBFU=   135
 Precomputing XC quadrature grid using
 IXCGrd= 4 IRadAn=           5 IRanWt=          -1 IRanGd=           0 AccXCQ= 0.00D+00.
 Generated NRdTot=       0 NPtTot=           0 NUsed=           0 NTot=          32
 NSgBfM=   154   154   154   154   154 MxSgAt=     4 MxSgA2=     4.
 Leave Link  302 at Tue Jan 26 00:25:28 2021, MaxMem=  6291456000 cpu:               5.2 elap:               0.3
 (Enter /home/orgChemistry/bin/gaussian16-C.01/g16/l303.exe)
 DipDrv:  MaxL=1.
 Leave Link  303 at Tue Jan 26 00:25:28 2021, MaxMem=  6291456000 cpu:               1.1 elap:               0.1
 (Enter /home/orgChemistry/bin/gaussian16-C.01/g16/l401.exe)
 Lowest energy guess from the checkpoint file:  "file_name.chk"
 B after Tr=    -0.000000   -0.000000    0.000000
         Rot=    0.999805    0.000000   -0.000000   -0.019750 Ang=   2.26 deg.
 Guess basis will be translated and rotated to current coordinates.
 B after Tr=    -0.000000    0.000000    0.000000
         Rot=    0.999287   -0.000000    0.000000   -0.037759 Ang=  -4.33 deg.
 Guess basis will be translated and rotated to current coordinates.
 CkInt1:  FT= 4.66D-01
 Max alpha theta= 15.962 degrees.
 JPrj=2 DoOrth=T DoCkMO=T.
 Leave Link  401 at Tue Jan 26 00:25:28 2021, MaxMem=  6291456000 cpu:               2.9 elap:               0.2
 (Enter /home/orgChemistry/bin/gaussian16-C.01/g16/l502.exe)
 Keep R1 ints in memory in canonical form, NReq=65669086.
 FoFCou: FMM=F IPFlag=           0 FMFlag=           0 FMFlg1=           0
         NFxFlg=           0 DoJE=F BraDBF=F KetDBF=F FulRan=T
         wScrn=  0.000000 ICntrl=       600 IOpCl=  0 I1Cent=           0 NGrid=           0
         NMat0=    1 NMatS0=   9180 NMatT0=    0 NMatD0=    1 NMtDS0=    0 NMtDT0=    0
 Symmetry not used in FoFCou.
 Two-electron integral symmetry not used.
 Closed shell SCF:
 Using DIIS extrapolation, IDIIS=  1040.
 NGot=  6291456000 LenX=  6249262622 LenY=  6249238465
 Requested convergence on RMS density matrix=1.00D-08 within 128 cycles.
 Requested convergence on MAX density matrix=1.00D-06.
 Requested convergence on             energy=1.00D-06.
 No special actions if energy rises.

 Cycle   1  Pass 1  IDiag  1:
 E= -168.487463166504    
 DIIS: error= 4.46D-03 at cycle   1 NSaved=   1.
[...]
 Gap=     0.253 Goal=   None    Shift=    0.000
 RMSDP=4.06D-04 MaxDP=9.37D-03 DE=-1.24D-02 OVMax= 3.09D-02

 Cycle   5  Pass 1  IDiag  1:
 E= -168.678444677496     Delta-E=       -0.007451601267 Rises=F Damp=F
 DIIS: error= 1.33D-03 at cycle   5 NSaved=   5.
 NSaved= 5 IEnMin= 5 EnMin= -168.678444677496     IErMin= 5 ErrMin= 1.33D-03
 ErrMax= 1.33D-03  0.00D+00 EMaxC= 1.00D+00 BMatC= 2.79D-04 BMatP= 9.42D-03
 IDIUse=1 WtCom= 1.00D+00 WtEn= 0.00D+00
 Coeff-Com: -0.699D-02 0.297D-01 0.171D+00 0.228D+00 0.579D+00
 Coeff:     -0.699D-02 0.297D-01 0.171D+00 0.228D+00 0.579D+00
 Gap=     0.254 Goal=   None    Shift=    0.000
 RMSDP=7.46D-05 MaxDP=2.21D-03 DE=-7.45D-03 OVMax= 4.37D-03

 Cycle   6  Pass 1  IDiag  1:
 E= -168.678614949224     Delta-E=       -0.000170271728 Rises=F Damp=F
 DIIS: error= 4.80D-04 at cycle   6 NSaved=   6.
 NSaved= 6 IEnMin= 6 EnMin= -168.678614949224     IErMin= 6 ErrMin= 4.80D-04
 ErrMax= 4.80D-04  0.00D+00 EMaxC= 1.00D+00 BMatC= 2.22D-05 BMatP= 2.79D-04
 IDIUse=1 WtCom= 1.00D+00 WtEn= 0.00D+00
 Coeff-Com: -0.134D-02-0.181D-02 0.154D-01 0.461D-01 0.275D+00 0.666D+00
 Coeff:     -0.134D-02-0.181D-02 0.154D-01 0.461D-01 0.275D+00 0.666D+00
 Gap=     0.253 Goal=   None    Shift=    0.000
 RMSDP=2.58D-05 MaxDP=9.13D-04 DE=-1.70D-04 OVMax= 1.17D-03

 Cycle   7  Pass 1  IDiag  1:
 E= -168.678633438283     Delta-E=       -0.000018489059 Rises=F Damp=F
 DIIS: error= 3.07D-05 at cycle   7 NSaved=   7.
 NSaved= 7 IEnMin= 7 EnMin= -168.678633438283     IErMin= 7 ErrMin= 3.07D-05
 ErrMax= 3.07D-05  0.00D+00 EMaxC= 1.00D+00 BMatC= 9.35D-08 BMatP= 2.22D-05
 IDIUse=1 WtCom= 1.00D+00 WtEn= 0.00D+00
 Coeff-Com: -0.175D-03-0.445D-03-0.114D-02 0.135D-02 0.282D-01 0.877D-01
 Coeff-Com:  0.885D+00
 Coeff:     -0.175D-03-0.445D-03-0.114D-02 0.135D-02 0.282D-01 0.877D-01
 Coeff:      0.885D+00
 Gap=     0.253 Goal=   None    Shift=    0.000
 RMSDP=1.89D-06 MaxDP=4.25D-05 DE=-1.85D-05 OVMax= 1.31D-04

 Cycle   8  Pass 1  IDiag  1:
 E= -168.678633532438     Delta-E=       -0.000000094155 Rises=F Damp=F
 DIIS: error= 9.48D-06 at cycle   8 NSaved=   8.
 NSaved= 8 IEnMin= 8 EnMin= -168.678633532438     IErMin= 8 ErrMin= 9.48D-06
 ErrMax= 9.48D-06  0.00D+00 EMaxC= 1.00D+00 BMatC= 6.42D-09 BMatP= 9.35D-08
 IDIUse=1 WtCom= 1.00D+00 WtEn= 0.00D+00
 Coeff-Com:  0.327D-04-0.105D-04-0.133D-02-0.252D-02-0.907D-02-0.143D-01
 Coeff-Com:  0.218D+00 0.810D+00
 Coeff:      0.327D-04-0.105D-04-0.133D-02-0.252D-02-0.907D-02-0.143D-01
 Coeff:      0.218D+00 0.810D+00
 Gap=     0.253 Goal=   None    Shift=    0.000
 RMSDP=5.92D-07 MaxDP=1.00D-05 DE=-9.42D-08 OVMax= 4.92D-05

 Cycle   9  Pass 1  IDiag  1:
 E= -168.678633539853     Delta-E=       -0.000000007415 Rises=F Damp=F
 DIIS: error= 1.62D-06 at cycle   9 NSaved=   9.
 NSaved= 9 IEnMin= 9 EnMin= -168.678633539853     IErMin= 9 ErrMin= 1.62D-06
 ErrMax= 1.62D-06  0.00D+00 EMaxC= 1.00D+00 BMatC= 2.75D-10 BMatP= 6.42D-09
 IDIUse=1 WtCom= 1.00D+00 WtEn= 0.00D+00
 Coeff-Com:  0.991D-05 0.134D-04-0.101D-03-0.213D-03-0.173D-02-0.369D-02
 Coeff-Com: -0.759D-02 0.126D+00 0.887D+00
 Coeff:      0.991D-05 0.134D-04-0.101D-03-0.213D-03-0.173D-02-0.369D-02
 Coeff:     -0.759D-02 0.126D+00 0.887D+00
 Gap=     0.253 Goal=   None    Shift=    0.000
 RMSDP=1.10D-07 MaxDP=2.52D-06 DE=-7.41D-09 OVMax= 1.04D-05

 Cycle  10  Pass 1  IDiag  1:
 E= -168.678633540180     Delta-E=       -0.000000000327 Rises=F Damp=F
 DIIS: error= 1.63D-07 at cycle  10 NSaved=  10.
 NSaved=10 IEnMin=10 EnMin= -168.678633540180     IErMin=10 ErrMin= 1.63D-07
 ErrMax= 1.63D-07  0.00D+00 EMaxC= 1.00D+00 BMatC= 4.11D-12 BMatP= 2.75D-10
 IDIUse=1 WtCom= 1.00D+00 WtEn= 0.00D+00
 Coeff-Com: -0.291D-06 0.872D-06 0.303D-04 0.461D-04 0.321D-04-0.275D-03
 Coeff-Com: -0.103D-01-0.217D-01 0.530D-01 0.979D+00
 Coeff:     -0.291D-06 0.872D-06 0.303D-04 0.461D-04 0.321D-04-0.275D-03
 Coeff:     -0.103D-01-0.217D-01 0.530D-01 0.979D+00
 Gap=     0.253 Goal=   None    Shift=    0.000
 RMSDP=2.78D-08 MaxDP=5.73D-07 DE=-3.27D-10 OVMax= 2.66D-06

 Cycle  11  Pass 1  IDiag  1:
 E= -168.678633540189     Delta-E=       -0.000000000009 Rises=F Damp=F
 DIIS: error= 3.85D-08 at cycle  11 NSaved=  11.
 NSaved=11 IEnMin=11 EnMin= -168.678633540189     IErMin=11 ErrMin= 3.85D-08
 ErrMax= 3.85D-08  0.00D+00 EMaxC= 1.00D+00 BMatC= 1.82D-13 BMatP= 4.11D-12
 IDIUse=1 WtCom= 1.00D+00 WtEn= 0.00D+00
 Coeff-Com: -0.916D-07-0.612D-07 0.659D-05 0.895D-05 0.501D-04 0.525D-04
 Coeff-Com: -0.891D-03-0.507D-02-0.101D-01 0.115D+00 0.901D+00
 Coeff:     -0.916D-07-0.612D-07 0.659D-05 0.895D-05 0.501D-04 0.525D-04
 Coeff:     -0.891D-03-0.507D-02-0.101D-01 0.115D+00 0.901D+00
 Gap=     0.253 Goal=   None    Shift=    0.000
 RMSDP=2.64D-09 MaxDP=5.06D-08 DE=-9.15D-12 OVMax= 2.40D-07

 SCF Done:  E(RB3LYP) =  -168.678633540     A.U. after   11 cycles
            NFock= 11  Conv=0.26D-08     -V/T= 2.0017
 KE= 1.683891738809D+02 PE=-5.171048953129D+02 EE= 1.195400683894D+02
 Leave Link  502 at Tue Jan 26 00:26:36 2021, MaxMem=  6291456000 cpu:              26.0 elap:               1.7
 (Enter /home/orgChemistry/bin/gaussian16-C.01/g16/l701.exe)
 ... and contract with generalized density number  0.
 Compute integral first derivatives.
 Leave Link  701 at Tue Jan 26 00:26:36 2021, MaxMem=  6291456000 cpu:               3.0 elap:               0.2
 (Enter /home/orgChemistry/bin/gaussian16-C.01/g16/l702.exe)
 L702 exits ... SP integral derivatives will be done elsewhere.
 Leave Link  702 at Tue Jan 26 00:26:36 2021, MaxMem=  6291456000 cpu:               0.4 elap:               0.0
 (Enter /home/orgChemistry/bin/gaussian16-C.01/g16/l703.exe)
 Integral derivatives from FoFJK, PRISM(SPDF).
 Compute integral first derivatives, UseDBF=F ICtDFT=           0.
 Calling FoFJK, ICntrl=      2127 FMM=F ISym2X=0 I1Cent= 0 IOpClX= 0 NMat=1 NMatS=1 NMatT=0.
 FoFJK:  IHMeth= 1 ICntrl=    2127 DoSepK=F KAlg= 0 I1Cent=           0 FoldK=F
 IRaf=         0 NMat=       1 IRICut=       1 DoRegI=T DoRafI=F ISym2E= 0 IDoP0=0 IntGTp=1.
 FoFCou: FMM=F IPFlag=           0 FMFlag=      100000 FMFlg1=         800
         NFxFlg=           0 DoJE=F BraDBF=F KetDBF=F FulRan=T
         wScrn=  0.000000 ICntrl=      2127 IOpCl=  0 I1Cent=           0 NGrid=           0
         NMat0=    1 NMatS0=      1 NMatT0=    0 NMatD0=    1 NMtDS0=    0 NMtDT0=    0
 Symmetry not used in FoFCou.
 Leave Link  703 at Tue Jan 26 00:26:37 2021, MaxMem=  6291456000 cpu:              18.2 elap:               0.8
 (Enter /home/orgChemistry/bin/gaussian16-C.01/g16/l716.exe)
 Dipole        =-1.65800982D+00 5.51135824D-01 1.40707225D-01
 ***** Axes restored to original set *****
 -------------------------------------------------------------------
 Center     Atomic                   Forces (Hartrees/Bohr)
 Number     Number              X              Y              Z
 -------------------------------------------------------------------
      1        6           0.014768962   -0.003694474    0.008213807
      2        7          -0.011609918    0.012440915   -0.096805023
      3        8           0.010598982   -0.001198276    0.115367933
      4        1          -0.013758025   -0.007548164   -0.026776717
 -------------------------------------------------------------------
 Cartesian Forces:  Max     0.115367933 RMS     0.045043314
 Leave Link  716 at Tue Jan 26 00:26:37 2021, MaxMem=  6291456000 cpu:               0.6 elap:               0.1
 (Enter /home/orgChemistry/bin/gaussian16-C.01/g16/l103.exe)

 GradGradGradGradGradGradGradGradGradGradGradGradGradGradGradGradGradGrad
 Berny optimization.
 Using GEDIIS/GDIIS optimizer.
 FormGI is forming the generalized inverse of G from B-inverse, IUseBI=4.
 Internal  Forces:  Max     0.115473499 RMS     0.050957444
 Search for a local minimum.
 Step number  20 out of a maximum of   20
 All quantities printed in internal units (Hartrees-Bohrs-Radians)
 RMS Force = .50957D-01 SwitMx=.10000D-02 MixMth= 1
 Mixed Optimization -- RFO/linear search
 Update second derivatives using D2CorX and points   19   20
 DE= -1.27D-02 DEPred=-2.13D-02 R= 5.95D-01
 TightC=F SS=  1.41D+00  RLast= 6.03D-01 DXNew= 1.2280D+00 1.8082D+00
 Trust test= 5.95D-01 RLast= 6.03D-01 DXMaxT set to 1.23D+00
 The second derivative matrix:
                          R1        R2        R3        A1        A2
           R1           2.39947
           R2           0.60228   0.56251
           R3          -1.03498  -0.51646   1.05252
           A1           1.57316   0.34796  -0.53395   3.42613
           A2           1.37909   0.62093  -0.55466   2.57958   2.69030
           D1           0.15135   0.29962  -0.28515  -0.38844  -0.00027
                          D1
           D1           0.34347
 ITU=  1  1 -1  1  1 -1  0
 Use linear search instead of GDIIS.
     Eigenvalues ---    0.04854   0.13129   0.41321   0.82635   2.00188
     Eigenvalues ---    7.05314
 RFO step:  Lambda=-2.59766446D-02 EMin= 4.85381073D-02
 Quartic linear search produced a step of -0.23494.
 Iteration  1 RMS(Cart)=  0.08349781 RMS(Int)=  0.04605699
 Iteration  2 RMS(Cart)=  0.03467283 RMS(Int)=  0.00313421
 Iteration  3 RMS(Cart)=  0.00381102 RMS(Int)=  0.00001195
 Iteration  4 RMS(Cart)=  0.00001245 RMS(Int)=  0.00000000
 Iteration  5 RMS(Cart)=  0.00000000 RMS(Int)=  0.00000000
 ITry= 1 IFail=0 DXMaxC= 1.30D-01 DCOld= 1.00D+10 DXMaxT= 1.23D+00 DXLimC= 3.00D+00 Rises=F
 Variable       Old X    -DE/DX   Delta X   Delta X   Delta X     New X
                                 (Linear)    (Quad)   (Total)
    R1        2.12950  -0.02056   0.00151   0.05455   0.05606   2.18557
    R2        3.69844  -0.03002   0.08755  -0.09350  -0.00595   3.69249
    R3        4.27042   0.11547   0.04666   0.19461   0.24127   4.51168
    A1        2.79201   0.01122  -0.01201   0.14684   0.13484   2.92684
    A2        0.30881  -0.02667  -0.00759  -0.10802  -0.11561   0.19319
    D1        0.87790  -0.00922  -0.10003   0.39104   0.29101   1.16891
         Item               Value     Threshold  Converged?
 Maximum Force            0.115473     0.000450     NO 
 RMS     Force            0.050957     0.000300     NO 
 Maximum Displacement     0.130285     0.001800     NO 
 RMS     Displacement     0.118892     0.001200     NO 
 Predicted change in Energy=-1.648987D-02
 Optimization stopped.
    -- Number of steps exceeded,  NStep=  20
    -- Flag reset to prevent archiving.
                           ----------------------------
                           ! Non-Optimized Parameters !
                           ! (Angstroms and Degrees)  !
 --------------------------                            --------------------------
 ! Name  Definition              Value          Derivative Info.                !
 --------------------------------------------------------------------------------
 ! R1    R(1,2)                  1.1566         -DE/DX =   -0.0206              !
 ! R2    R(1,4)                  1.954          -DE/DX =   -0.03                !
 ! R3    R(2,3)                  2.3875         -DE/DX =    0.1155              !
 ! A1    A(2,1,4)              167.6958         -DE/DX =    0.0112              !
 ! A2    A(1,2,3)               11.0693         -DE/DX =   -0.0267              !
 ! D1    D(4,1,2,3)             66.9735         -DE/DX =   -0.0092              !
 --------------------------------------------------------------------------------
 Lowest energy point so far.  Saving SCF results.
 Largest change from initial coordinates is atom    4       3.076 Angstoms.
 GradGradGradGradGradGradGradGradGradGradGradGradGradGradGradGradGradGrad

 Leave Link  103 at Tue Jan 26 00:26:38 2021, MaxMem=  6291456000 cpu:               7.5 elap:               0.4
 (Enter /home/orgChemistry/bin/gaussian16-C.01/g16/l202.exe)
                          Input orientation:                          
 ---------------------------------------------------------------------
 Center     Atomic      Atomic             Coordinates (Angstroms)
 Number     Number       Type             X           Y           Z
 ---------------------------------------------------------------------
      1          6           0       -2.715734    3.085537    0.128600
      2          7           0       -2.668061    2.845426   -0.971374
      3          8           0       -2.557609    2.664566    1.278475
      4          1           0       -2.175311    3.231013    2.004005
 ---------------------------------------------------------------------
                    Distance matrix (angstroms):
                    1          2          3          4
     1  C    0.000000
     2  N    1.126884   0.000000
     3  O    1.234679   2.259807   0.000000
     4  H    1.957132   3.040454   0.996699   0.000000
 Stoichiometry    CHNO
 Framework group  C1[X(CHNO)]
 Deg. of freedom     6
 Full point group                 C1      NOp   1
 RotChk:  IX=0 Diff= 1.14D-16
 Largest Abelian subgroup         C1      NOp   1
 Largest concise Abelian subgroup C1      NOp   1
                         Standard orientation:                         
 ---------------------------------------------------------------------
 Center     Atomic      Atomic             Coordinates (Angstroms)
 Number     Number       Type             X           Y           Z
 ---------------------------------------------------------------------
      1          6           0        0.170923    0.211331   -0.093684
      2          7           0        1.251120   -0.073212    0.054906
      3          8           0       -1.006280   -0.152185   -0.013190
      4          1           0       -1.733135    0.461978    0.283281
 ---------------------------------------------------------------------
 Rotational constants (GHZ):         361.3264631          12.1343641          11.8515536
 Leave Link  202 at Tue Jan 26 00:26:38 2021, MaxMem=  6291456000 cpu:               0.3 elap:               0.0
 (Enter /home/orgChemistry/bin/gaussian16-C.01/g16/l601.exe)
 Copying SCF densities to generalized density rwf, IOpCl= 0 IROHF=0.

 **********************************************************************

            Population analysis using the SCF Density.

 **********************************************************************

 Orbital symmetries:
       Occupied  (A) (A) (A) (A) (A) (A) (A) (A) (A) (A) (A)
       Virtual   (A) (A) (A) (A) (A) (A) (A) (A) (A) (A) (A) (A)
                 (A) (A) (A) (A) (A) (A) (A) (A) (A) (A) (A) (A)
                 (A) (A) (A) (A) (A) (A) (A) (A) (A) (A) (A) (A)
                 (A) (A) (A) (A) (A) (A) (A) (A) (A) (A) (A) (A)
                 (A) (A) (A) (A) (A) (A) (A) (A) (A) (A) (A) (A)
                 (A) (A) (A) (A) (A) (A) (A) (A) (A) (A) (A) (A)
                 (A) (A) (A) (A) (A) (A) (A) (A) (A) (A) (A) (A)
                 (A) (A) (A) (A) (A) (A) (A) (A) (A) (A) (A) (A)
                 (A) (A) (A) (A) (A) (A) (A) (A) (A) (A) (A) (A)
                 (A) (A) (A) (A) (A) (A) (A) (A) (A) (A) (A) (A)
                 (A) (A) (A) (A)
 The electronic state is 1-A.
 Alpha  occ. eigenvalues --  -19.23666 -14.30634 -10.25851  -1.16535  -0.92457
 Alpha  occ. eigenvalues --   -0.69717  -0.51785  -0.49119  -0.37812  -0.33630
 Alpha  occ. eigenvalues --   -0.31400
 Alpha virt. eigenvalues --   -0.06085  -0.02089   0.04770   0.05105   0.05135
 Alpha virt. eigenvalues --    0.06174   0.08327   0.10788   0.14512   0.15195
 Alpha virt. eigenvalues --    0.19035   0.19863   0.20720   0.22900   0.23740
 Alpha virt. eigenvalues --    0.28331   0.28657   0.34765   0.37068   0.40868
 Alpha virt. eigenvalues --    0.42126   0.46234   0.50115   0.53054   0.55048
 Alpha virt. eigenvalues --    0.58713   0.60503   0.62722   0.72452   0.72678
 Alpha virt. eigenvalues --    0.73259   0.74412   0.78080   0.80151   0.85189
 Alpha virt. eigenvalues --    0.92073   0.92747   0.96646   1.02603   1.08972
 Alpha virt. eigenvalues --    1.18228   1.22689   1.23239   1.24268   1.32119
 Alpha virt. eigenvalues --    1.36537   1.51241   1.58277   1.65949   1.72969
 Alpha virt. eigenvalues --    1.83169   1.88391   1.95686   1.97200   2.11046
 Alpha virt. eigenvalues --    2.25295   2.37032   2.39649   2.47143   2.61873
 Alpha virt. eigenvalues --    2.66295   2.74052   2.77752   2.82228   2.91279
 Alpha virt. eigenvalues --    2.93337   2.95754   3.02651   3.07286   3.11533
 Alpha virt. eigenvalues --    3.14640   3.18164   3.27862   3.32431   3.56830
 Alpha virt. eigenvalues --    3.59487   3.65351   3.67185   3.78791   3.82770
 Alpha virt. eigenvalues --    3.95256   4.10049   4.11671   4.16309   4.26964
 Alpha virt. eigenvalues --    4.33817   4.46003   4.51086   4.63211   4.99098
 Alpha virt. eigenvalues --    5.03269   5.09863   5.19000   5.33235   5.46089
 Alpha virt. eigenvalues --    5.55338   5.64417   5.91961   6.17264   6.31445
 Alpha virt. eigenvalues --    6.46466   6.87825   6.99328   7.01479   7.33692
 Alpha virt. eigenvalues --    7.46053   7.64632   8.14374   8.25617   8.50360
 Alpha virt. eigenvalues --    9.43450  10.21758  10.22300  10.89010  10.98335
 Alpha virt. eigenvalues --   11.18265  14.37678  14.43503  14.70344  15.01593
 Alpha virt. eigenvalues --   15.31752  25.50019  36.94858  50.59076
          Condensed to atoms (all electrons):
               1          2          3          4
     1  C    4.671586   0.258469   0.083080  -0.027823
     2  N    0.258469   7.802077  -0.192481   0.004071
     3  O    0.083080  -0.192481   8.510370   0.195828
     4  H   -0.027823   0.004071   0.195828   0.373680
 Mulliken charges:
               1
     1  C    1.014688
     2  N   -0.872136
     3  O   -0.596797
     4  H    0.454245
 Sum of Mulliken charges =   0.00000
 Mulliken charges with hydrogens summed into heavy atoms:
               1
     1  C    1.014688
     2  N   -0.872136
     3  O   -0.142553
 Electronic spatial extent (au):  <R**2>=            119.4243
 Charge=             -0.0000 electrons
 Dipole moment (field-independent basis, Debye):
    X=             -4.2142    Y=              1.4008    Z=              0.3576  Tot=              4.4553
 Quadrupole moment (field-independent basis, Debye-Ang):
   XX=            -16.9254   YY=            -16.1346   ZZ=            -16.6323
   XY=             -2.1378   XZ=             -1.2445   YZ=              0.3126
 Traceless Quadrupole moment (field-independent basis, Debye-Ang):
   XX=             -0.3613   YY=              0.4295   ZZ=             -0.0682
   XY=             -2.1378   XZ=             -1.2445   YZ=              0.3126
 Octapole moment (field-independent basis, Debye-Ang**2):
  XXX=            -22.5524  YYY=             -0.2913  ZZZ=              0.3604  XYY=             -3.2662
  XXY=              3.4936  XXZ=              2.2201  XZZ=             -2.8191  YZZ=             -0.0311
  YYZ=              0.2544  XYZ=             -0.5437
 Hexadecapole moment (field-independent basis, Debye-Ang**3):
 XXXX=           -108.5406 YYYY=            -18.4511 ZZZZ=            -16.4533 XXXY=             -6.1064
 XXXZ=             -4.8301 YYYX=             -1.5571 YYYZ=              0.3289 ZZZX=             -0.6443
 ZZZY=              0.2575 XXYY=            -21.4955 XXZZ=            -22.5303 YYZZ=             -5.7922
 XXYZ=              1.0766 YYXZ=             -0.4172 ZZXY=             -0.5416
 N-N= 6.049701950237D+01 E-N=-5.171048962492D+02  KE= 1.683891738809D+02
 No NMR shielding tensors so no spin-rotation constants.
 Leave Link  601 at Tue Jan 26 00:26:38 2021, MaxMem=  6291456000 cpu:               4.1 elap:               0.2
 (Enter /home/orgChemistry/bin/gaussian16-C.01/g16/l9999.exe)


 Democracy is the recurrent suspicion that more than half of the people
 are right more than half of the time.
 -- E. B. White
 Error termination request processed by link 9999.
 Error termination via Lnk1e in /home/orgChemistry/bin/gaussian16-C.01/g16/l9999.exe at Tue Jan 26 00:26:38 2021.
 Job cpu time:       0 days  0 hours 24 minutes 28.8 seconds.
 Elapsed time:       0 days  0 hours  1 minutes 27.1 seconds.
 File lengths (MBytes):  RWF=     19 Int=      0 D2E=      0 Chk=      3 Scr=      1
