 --invoking executable--
/home/orgChemistry/bin/cfour_v21/bin/xjoda


   *************************************************************************
         <<<     CCCCCC     CCCCCC   |||     CCCCCC     CCCCCC   >>>
       <<<      CCC        CCC       |||    CCC        CCC         >>>
      <<<      CCC        CCC        |||   CCC        CCC            >>>
    <<<        CCC        CCC        |||   CCC        CCC              >>>
      <<<      CCC        CCC        |||   CCC        CCC            >>>
       <<<      CCC        CCC       |||    CCC        CCC         >>>
         <<<     CCCCCC     CCCCCC   |||     CCCCCC     CCCCCC   >>>
   *************************************************************************

     ****************************************************************
     * CFOUR Coupled-Cluster techniques for Computational Chemistry *
     ****************************************************************
 

   Department of Chemistry                Institut fuer Physikalische Chemie
   University of Florida                  Universitaet Mainz
   Gainesville, FL 32611, USA             D-55099 Mainz, Germany

   Department of Chemistry                Fakultaet fuer Chemie und Biowiss.
   Johns Hopkins University               Karlsruher Institut fuer Technologie
   Baltimore, MD 21218, USA               D-76131 Karlsruhe, Germany

   Department of Chemistry                Department of Physical Chemistry
   Southern Methodist University          Eotvos Lorand University
   Dallas, TX 75275, USA                  H-1053 Budapest, Hungary

 
                       Version 2.1
 
                     node2-206                                         
                     Wed Jan 27 18:36:19 CET 2021                      
                     integer*8 version is running
 
********************************************************************************
*                          Input from ZMAT file                                *
********************************************************************************
title                                                                           
C                                                                               
N 1 R12*                                                                        
X 2 R23* 1 A123*                                                                
H 2 R24* 3 A324* 1 D1324*                                                       
                                                                                
R12           =        1.16427600                                               
R23           =        0.87057541                                               
A123          =        90.65839065                                              
R24           =        0.99735100                                               
A324          =        89.34160935                                              
D1324         =        180.00000000                                             
                                                                                
*CFOUR(CALC=CCSD(T),BASIS=cc-pVTZ,FROZEN_CORE=1                                 
       CONVERGENCE=8                                                            
       MEMORY_SIZE=5000,MEM_UNIT=MB,ABCDTYPE=AOBASIS,CC_PROG=ECC                
       MULTIPLICITY=1,CHARGE=0                                                  
       SCF_CONV=8,CC_CONV=10)                                                   
                                                                                
********************************************************************************
    -------------------------------------------------------------------
                    CFOUR Control Parameters 
    -------------------------------------------------------------------
        External           Internal           Value            Units
          Name               Name
    -------------------------------------------------------------------
       ABCDTYPE             IABCDT         AOBASIS     [  2]    ***   
       ANHARMONIC           IANHAR         OFF         [  0]    ***   
       ANH_ALGORIT          IANALG         STANDARD    [  0]    ***   
       ANH_DERIVAT          IANDER         SECOND      [  1]    ***   
       ANH_MODE             ANHMOD         VIBRATION   [  0]    ***   
       ANH_STEPSIZ          ICUBST             50000          x 10-6  
       ANH_SYMMETR          IANHSM         ABELIAN     [  0]    ***   
       AO_LADDERS           IAOLAD         SINGLEPASS  [  1]    ***   
       AV_SCF               IAVSCF         OFF         [  0]    ***   
       BASIS                IBASIS         PVTZ        [ 14]    ***   
       BOTHVECTORS          BOTHVC         OFF         [  0]    ***   
       BOX_POTENT           IPIAB          OFF         [  0]    ***   
       BREIT                IBREIT         OFF         [  0]    ***   
       BRUCK_CONV           IBRTOL          10D-  4             ***   
       BRUECKNER            IBRKNR         OFF         [  0]    ***   
       BUFFERSIZE           IBUFFS              4096            ***   
       CACHE_RECS           ICHREC             10               ***   
       CALCLEVEL            ICLLVL         CCSD(T)     [ 22]    ***   
       CCORBOPT             ICCORB         OFF         [  0]  x 0.01  
       CC_CONV              ICCCNV          10D- 10             ***   
       CC_EXPORDER          ICCEOR              5               ***   
       CC_EXTRAPOL          ICCEXT         DIIS        [  1]    ***   
       CC_GUESS             ICCGES         MP2         [  0]    ***   
       CC_MAXCYC            ICCCYC            100              cycles 
       CC_PROGRAM           ICCPRO         ECC         [  1]    ***   
       CHARGE               ICHRGE              0               ***   
       CHOLESKY             ICHOLE         OFF         [  0]    ***   
       CIS_CONV             ICISTL              5               ***   
       COMM_SIZE            IPSIZE            ***               ***   
       CONSTANT             ICONST         OLD         [  1]    ***   
       CONTINUUM            ICONTU         NONE        [  0]    ***   
       CONTRACTION          ICNTYP         GENERAL     [  1]    ***   
       COORDINATES          ICOORD         INTERNAL    [  0]    ***   
       CPHF_CONVER          ICPHFT          10D- 16             ***   
       CPHF_MAXCYC          ICPHFC             64              cycles 
       CUBIC                ICUBIC         OFF         [  0]    ***   
       CURVILINEAR          ICURVY         OFF         [  0]    ***   
       DBOC                 IDBOC          OFF         [  0]    ***   
       DCT                  IDCT           OFF         [  0]    ***   
       DERIV_LEV            IDRLVL         FIRST       [  1]    ***   
       DEVMEM_SIZE          IDVMEM         *********           MByte  
       DIAG_MRCC            IEOMST          10D-  0             ***   
       DIFF_TYPE            IDIFTY         RELAXED     [  0]    ***   
       DIRECT               IDIRCT         OFF         [  0]    ***   
       DROPMO               IDRPMO      NONE         
       ECP                  IECP           OFF         [  0]    ***   
       EIGENVECTOR          IVEC                1               ***   
       EL_ANHARM            IELANH         OFF         [  0]    ***   
       EOMFOLLOW            IEOMSR         ENERGY      [  0]    ***   
       EOMIP                IEOMIP         OFF         [  0]    ***   
       EOMLEVEL             HBARFM         SAME        [  0]    ***   
       EOM_MRCC             IMRCCE         NEW         [  1]    ***   
       EOM_NONIT            EOMNON         OFF         [  0]    ***   
       EOM_NSING            IEOMSI          10D-  0             ***   
       EOM_NSTATES          IMRCCD         DAVIDSON    [  0]    ***   
       EOM_NTRIP            IEOMTR          10D-  0             ***   
       EOM_ORDER            IEXORD         ENERGY      [  0]    ***   
       EOM_PROPSTA          IEOMST              0               ***   
       ESTATE_CONV          IEXTOL          10D-  5             ***   
       ESTATE_DIAG          IEXDIG         ITERATIVE   [  0]    ***   
       ESTATE_LOCK          IESLOC         ON          [  1]    ***   
       ESTATE_MAXC          IEXMXC             40               ***   
       ESTATE_PROP          IEXPRP         OFF         [  0]    ***   
       EVAL_HESS            IRECAL              0            # of cyc.
       EXCITATION           IEXCIT              0               ***   
       EXCITE               IEXCIT         NONE        [  0]    ***   
       EXTERN_POT           IEXPOT         OFF         [  0]    ***   
       FCGRADNEW            IFCGNW         OFF         [  0]    ***   
       FC_FIELD             IFINFC              0             x 10-6  
       FD_CALTYPE           IFDCAL         GRADONLY    [  0]    ***   
       FD_PROJECT           IFDPRJ         OFF         [  1]    ***   
       FD_STEPSIZE          IDISFD              0            10-4 bohr
       FD_USEGROUP          IFDGRP         FULL        [  0]    ***   
       FILE_RECSIZ          IFLREC              4096           words  
       FINITE_PERT          IFIPER              0             x 10-6  
       FIXGEOM              IFIXGM         OFF         [  0]    ***   
       FOCK                 IFOCK          AO          [  1]    ***   
       FREQ_ALGORI          IVIALG         STANDARD    [  0]    ***   
       FROZEN_CORE          IFROCO         ON          [  1]    ***   
       GAMMA_ABCD           IGABCD         DIRECT      [  1]    ***   
       GAMMA_ABCI           IGABCI         STORE       [  0]    ***   
       GENBAS_1             IGNBS1              0               ***   
       GENBAS_2             IGNBS2              0               ***   
       GENBAS_3             IGNBS3              0               ***   
       GENBAS_4             IGNBS4              0               ***   
       GEO_CONV             ICONTL              8              H/bohr 
       GEO_MAXCYC           IOPTCY             50               ***   
       GEO_MAXSTEP          IMXSTP            300            millibohr
       GEO_METHOD           INR            NR          [  0]    ***   
       GIAO                 IGIAO          OFF         [  1]    ***   
       GIMIC                IGIMIC         OFF         [  0]    ***   
       GRID                 IGRID          OFF         [  0]    ***   
       GRID_ALGO            IGALGO         SERIAL      [  0]    ***   
       GUESS                IGUESS         MOREAD      [  0]    ***   
       HBAR                 IHBAR          OFF         [  0]    ***   
       HESS_TYPE            IHESTP         SCF         [  0]    ***   
       HF2_FILE             IHF2Fl         USE         [  1]    ***   
       HFSTABILITY          ISTABL         OFF         [  0]    ***   
       INCORE               INCORE         OFF         [  0]    ***   
       INPUT_MRCC           IMRCC          ON          [  1]    ***   
       INTEGRALS            INTTYP         VMOL        [  1]    ***   
       JODA_PRINT           IJPRNT              0               ***   
       KEYWORD_OUT          IDMPKW         NO          [  0]    ***   
       LINDEP_TOL           ILINDP              8               ***   
       LINEQ_CONV           IZTACN          10D-  7           cycles  
       LINEQ_EXPOR          ILMAXD              5               ***   
       LINEQ_MAXCY          ILMAXC            100               ***   
       LINEQ_TYPE           ILTYPE         DIIS        [  1]    ***   
       LOCK_ORBOCC          ILOCOC         OFF         [  0]    ***   
       MEMORY_SIZE          IMEMSZ         625000000           words  
       MEM_UNIT             IMEMU          MB          [  2]    ***   
       MRCC                 IMRCCC         OFF         [  0]    ***   
       MULTIPLICTY          IMULTP              1               ***   
       NACOUPLING           IVCOUP         OFF         [  0]    ***   
       NEGEVAL              IDIE           ABORT       [  0]    ***   
       NEWNORM              INEWNO         OFF         [  0]    ***   
       NON-HF               INONHF         OFF         [  0]    ***   
       NTOP_TAMP            ITOPT2             15               ***   
       NUC_MODEL            INUCMO         POINT       [  0]    ***   
       OCCUPATION           IOCCU   ESTIMATED BY SCF 
       OPEN-SHELL           IOPEN          SPIN-ORBITAL[  0]    ***   
       OPTVIB               IOPTVB         OFF         [  0]    ***   
       ORBITALS             IORBTP         STANDARD    [  0]    ***   
       PARALLEL             IPARAL         ON          [  1]    ***   
       PARA_INT             IPINTS         ON          [  1]    ***   
       PARA_PRINT           IPPRIN              0               ***   
       PERT_ORB             IPTORB         CANONICAL   [  1]    ***   
       POINTS               IGRDFD              0               ***   
       PRINT                IPRNT               0               ***   
       PROPS                IPROPS         OFF         [  0]    ***   
       PROP_INTEGR          IINTYP         INTERNAL    [  0]    ***   
       PSI                  IPSI           OFF         [  0]    ***   
       QC_ALG               IQCALG         FLM         [  0]    ***   
       QC_LINALG            IQCLIN         TRIDIAG     [  2]    ***   
       QC_MAXCYC            IQCMAX          10D-100           cycles  
       QC_MAXSCFCY          IQCMSC          10D- 15           cycles  
       QC_RTRUST            IQCRTR          10D-  0           x 10-3  
       QC_SKIPSCF           IQCSKI         OFF         [  0]    ***   
       QC_START             IQCSTA          10D-  1             ***   
       QRHFGUESS            IQGUES         OFF         [  0]    ***   
       QUARTIC              IQUART         OFF         [  0]    ***   
       RAMAN_INT            IRAMIN         OFF         [  0]    ***   
       RAMAN_ORB            IRAMRE         UNRELAXED   [  0]    ***   
       RDO                  IRDOFM         ON          [  1]    ***   
       REDUCE_REPR          REDREP         Ir          [  0]    ***   
       REFERENCE            IREFNC         RHF         [  0]    ***   
       RELATIVIST           IRELAT         OFF         [  0]    ***   
       RELAX_DENS           IRDENS         ON          [  1]    ***   
       RESET_FLAGS          IRESET         OFF         [  0]    ***   
       RESTART_CC           ICCRES         OFF         [  0]    ***   
       ROT_EVEC             ROTVEC              0               ***   
       SAVE_INTS            ISVINT         OFF         [  0]    ***   
       SCALE_ON             ISTCRT              0               ***   
       SCF_CONV             ISCFCV          10D-  8             ***   
       SCF_DAMPING          IDAMP               0             x 10-3  
       SCF_EXPORDE          IRPPOR              6               ***   
       SCF_EXPSTAR          IRPPLS              8               ***   
       SCF_EXTRAPO          IRPP           ON          [  1]    ***   
       SCF_MAXCYC           ISCFCY            150              cycles 
       SCF_NOSTOP           ISCFST         OFF         [  0]    ***   
       SCF_PRINT            ISCFPR              0               ***   
       SCF_PROG             ISCFPR         SCF         [  0]    ***   
       SD_FIELD             IFINSD              0             x 10-6  
       SOPERT               IPERSO         OFF         [  0]    ***   
       SPHERICAL            IDFGHI         ON          [  1]    ***   
       SPINORBIT            ISOCAL         OFF         [  0]    ***   
       SPINROTATIO          ISRCON         OFF         [  0]    ***   
       SPIN_FLIP            ISPFLP         OFF         [  0]    ***   
       SPIN_ORBIT           ISPORB         OFF         [  0]    ***   
       SPIN_SCAL            ISCSMP         OFF         [  0]    ***   
       STEEPSCALE           ISTPSC              1000          x 10-3  
       SUBGROUP             ISUBGP         DEFAULT     [  0]    ***   
       SUBGRPAXIS           ISBXYZ         X           [  0]    ***   
       SYMMETRY             ISYM           ON          [  0]    ***   
       SYM_CHECK            ISYMCK         OVERRIDE    [  1]    ***   
       T3_EXTRAPOL          IT3EXT         OFF         [  0]    ***   
       T4_EXTRAPOL          IT4EXP         OFF         [  0]    ***   
       TAMP_SUM             IEVERY              5               ***   
       TESTSUITE            ITESTS         OFF         [  0]    ***   
       THERMOCH             ITHERM         OFF         [  0]    ***   
       TOL_CHOLESK          ITOLCH          10D-  4             ***   
       TRANGRAD             IRESRM         OFF         [  0]    ***   
       TRANS_INV            ITRAIN         USE         [  0]    ***   
       TREAT_PERT           ITREAT         SIMULTANEOUS[  0]    ***   
       TRIP_ALGORI          ITRALG         NORMAL      [  0]    ***   
       UIJ_THRESHO          IUIJTH              1               ***   
       UNITS                IUNITS         ANGSTROM    [  0]    ***   
       UNOS                 IUNOS          OFF         [  0]    ***   
       UPDATE_HESS          IHUPDT         ON          [  1]    ***   
       VIBPHASE             ISETPH         STANDARD    [  0]    ***   
       VIBRATION            IVIB           NO          [  0]    ***   
       VIB_ALGORIT          IGEALG         STANDARD    [  0]    ***   
       VNATORB              IVNORB         OFF         [  0]    ***   
       VTRAN                IVTRAN         PARTIAL     [  2]    ***   
       XFIELD               IXEFLD              0             x 10-6  
       XFORM_TOL            IXFTOL          10D- 11             ***   
       YFIELD               IYEFLD              0             x 10-6  
       ZFIELD               IZEFLD              0             x 10-6  
       ZSCALE_EXP           IZEXPS         OFF         [  0]    ***   
    -------------------------------------------------------------------
   4 entries found in Z-matrix 
   Job Title : title                                                                           
   There are  6 unique internal coordinates.
   Of these,  6 will be optimized.
   User supplied Z-matrix: 
--------------------------------------------------------------------------------
       SYMBOL    BOND      LENGTH    ANGLE     ANGLE     DIHED     ANGLE
                  TO      (ANGST)    WRT      (DEG)      WRT      (DEG)
--------------------------------------------------------------------------------
        C    
        N          1         R12  
        X          2         R23        1        A123 
        H          2         R24        3        A324       1        D1324
                  *Initial values for internal coordinates* 
                      Name             Value
                        R12             1.1642760000
                        R23             0.8705754100
                        A123           90.6583906500
                        R24             0.9973510000
                        A324           89.3416093500
                        D1324         180.0000000000
--------------------------------------------------------------------------------
  filter applied 
   Rotational constants (in cm-1): 
          1.5263017649             1.5263017649
   Rotational constants (in MHz): 
      45757.3821862093         45757.3821862093
********************************************************************************
   The full molecular point group is CXv .
   The largest Abelian subgroup of the full molecular point group is C2v .
   The computational point group is C2v .
********************************************************************************
--------------------------------------------------------------------------------
   Analysis of internal coordinates specified by Z-matrix 
--------------------------------------------------------------------------------
   *The nuclear repulsion energy is   24.272400997293929 a.u.
  *WARNING* Parameter R23  [  2] cannot have a nonzero derivative,
    but is being optimized.  Reconstruction of Z-matrix recommended.
  *WARNING* Parameter A123 [  3] cannot have a nonzero derivative,
    but is being optimized.  Reconstruction of Z-matrix recommended.
  *WARNING* Parameter A324 [  5] cannot have a nonzero derivative,
    but is being optimized.  Reconstruction of Z-matrix recommended.
  *WARNING* Parameter D1324[  6] cannot have a nonzero derivative,
    but is being optimized.  Reconstruction of Z-matrix recommended.
   *There are   2 degrees of freedom within the tot. symm. molecular subspace.
   *Z-matrix requests optimization of   6 coordinates.
   *The following   2 parameters can have non-zero 
    derivatives within the totally symmetric subspace:
             R24  [ 4]  R12  [ 1]
   *The following   6 parameters are to be optimized:
             R12  [ 1]  R23  [ 2]  A123 [ 3]  R24  [ 4]  A324 [ 5]  D1324[ 6]

--------------------------------------------------------------------------------


 ----------------------------------------------------------------
         Coordinates used in calculation (QCOMP) 
 ----------------------------------------------------------------
 Z-matrix   Atomic            Coordinates (in bohr)
  Symbol    Number           X              Y              Z
 ----------------------------------------------------------------
     C         6        -0.00000000    -0.00000000    -1.29302978
     N         7        -0.00000000     0.00000000     0.90713346
     X         0        -0.00000000     1.64504082     0.92603759
     H         1         0.00000000     0.00000000     2.79185409
 ----------------------------------------------------------------
 
   Interatomic distance matrix (Angstroms) 
 
                 C             N             X             H    
                [ 1]        [ 2]        [ 3]        [ 4]
  C    [ 1]     0.00000
  N    [ 2]     1.16428     0.00000
  X    [ 3]     1.46176     0.87058     0.00000
  H    [ 4]     2.16163     0.99735     1.31630     0.00000
 rotcon2
   Rotational constants (in cm-1): 
          1.5263017649             0.0000000000
   Rotational constants (in MHz): 
      45757.3821862093             0.0000000000
  There are   2 frozen-core orbitals.
  There are   74 basis functions.
 @CHECKOUT-I, Total execution time (CPU/WALL):        0.10/       0.28 seconds.
--executable xjoda finished with status     0 in        0.45 seconds (walltime).
 --invoking executable--
/home/orgChemistry/bin/cfour_v21/bin/xvmol
 SERIAL VERSION OF MOLECULE STARTED
********************************************************************************
                    INPUT FROM MOL FILE
********************************************************************************
INTGRL        1    0    1    0    0    0    0    0    0                         
         *** CFOUR Program System (Release V0.1) ***                            
title                                                                           
    3    2 X  Y       0.10E-08              0    0                              
   9999.00      3.00                                                            
          6.00000000    1    4    1    1    1    1                              
C #1  -0.000000000000000  -0.000000000000000  -1.293029779251695                
   10    4                                                                      
   8236.00000000000       5.310000000000000E-004 -1.130000000000000E-004        
  0.000000000000000E+000  0.000000000000000E+000                                
   1235.00000000000       4.108000000000000E-003 -8.780000000000000E-004        
  0.000000000000000E+000  0.000000000000000E+000                                
   280.800000000000       2.108700000000000E-002 -4.540000000000000E-003        
  0.000000000000000E+000  0.000000000000000E+000                                
   79.2700000000000       8.185300000000000E-002 -1.813300000000000E-002        
  0.000000000000000E+000  0.000000000000000E+000                                
   25.5900000000000       0.234817000000000      -5.576000000000000E-002        
  0.000000000000000E+000  0.000000000000000E+000                                
   8.99700000000000       0.434401000000000      -0.126895000000000             
  0.000000000000000E+000  0.000000000000000E+000                                
   3.31900000000000       0.346129000000000      -0.170352000000000             
  0.000000000000000E+000  0.000000000000000E+000                                
  0.905900000000000       3.937800000000000E-002  0.140382000000000             
   1.00000000000000       0.000000000000000E+000                                
  0.364300000000000      -8.983000000000000E-003  0.598684000000000             
  0.000000000000000E+000  0.000000000000000E+000                                
  0.128500000000000       2.385000000000000E-003  0.395389000000000             
  0.000000000000000E+000   1.00000000000000                                     
    5    3                                                                      
   18.7100000000000       1.403100000000000E-002  0.000000000000000E+000        
  0.000000000000000E+000                                                        
   4.13300000000000       8.686600000000000E-002  0.000000000000000E+000        
  0.000000000000000E+000                                                        
   1.20000000000000       0.290216000000000       0.000000000000000E+000        
  0.000000000000000E+000                                                        
  0.382700000000000       0.501008000000000        1.00000000000000             
  0.000000000000000E+000                                                        
  0.120900000000000       0.343406000000000       0.000000000000000E+000        
   1.00000000000000                                                             
    2    2                                                                      
   1.09700000000000        1.00000000000000       0.000000000000000E+000        
  0.318000000000000       0.000000000000000E+000   1.00000000000000             
    1    1                                                                      
  0.761000000000000        1.00000000000000                                     
          7.00000000    1    4    1    1    1    1                              
N #2  -0.000000000000000   0.000000000000000   0.907133455325161                
   10    4                                                                      
   11420.0000000000       5.230000000000000E-004 -1.150000000000000E-004        
  0.000000000000000E+000  0.000000000000000E+000                                
   1712.00000000000       4.045000000000000E-003 -8.950000000000000E-004        
  0.000000000000000E+000  0.000000000000000E+000                                
   389.300000000000       2.077500000000000E-002 -4.624000000000000E-003        
  0.000000000000000E+000  0.000000000000000E+000                                
   110.000000000000       8.072699999999999E-002 -1.852800000000000E-002        
  0.000000000000000E+000  0.000000000000000E+000                                
   35.5700000000000       0.233074000000000      -5.733900000000000E-002        
  0.000000000000000E+000  0.000000000000000E+000                                
   12.5400000000000       0.433501000000000      -0.132076000000000             
  0.000000000000000E+000  0.000000000000000E+000                                
   4.64400000000000       0.347472000000000      -0.172510000000000             
  0.000000000000000E+000  0.000000000000000E+000                                
   1.29300000000000       4.126200000000000E-002  0.151814000000000             
   1.00000000000000       0.000000000000000E+000                                
  0.511800000000000      -8.508000000000000E-003  0.599944000000000             
  0.000000000000000E+000  0.000000000000000E+000                                
  0.178700000000000       2.384000000000000E-003  0.387462000000000             
  0.000000000000000E+000   1.00000000000000                                     
    5    3                                                                      
   26.6300000000000       1.467000000000000E-002  0.000000000000000E+000        
  0.000000000000000E+000                                                        
   5.94800000000000       9.176400000000000E-002  0.000000000000000E+000        
  0.000000000000000E+000                                                        
   1.74200000000000       0.298683000000000       0.000000000000000E+000        
  0.000000000000000E+000                                                        
  0.555000000000000       0.498487000000000        1.00000000000000             
  0.000000000000000E+000                                                        
  0.172500000000000       0.337023000000000       0.000000000000000E+000        
   1.00000000000000                                                             
    2    2                                                                      
   1.65400000000000        1.00000000000000       0.000000000000000E+000        
  0.469000000000000       0.000000000000000E+000   1.00000000000000             
    1    1                                                                      
   1.09300000000000        1.00000000000000                                     
          1.00000000    1    3    1    1    1                                   
H #3   0.000000000000000   0.000000000000000   2.791854090439568                
    5    3                                                                      
   33.8700000000000       6.068000000000000E-003  0.000000000000000E+000        
  0.000000000000000E+000                                                        
   5.09500000000000       4.530800000000000E-002  0.000000000000000E+000        
  0.000000000000000E+000                                                        
   1.15900000000000       0.202822000000000       0.000000000000000E+000        
  0.000000000000000E+000                                                        
  0.325800000000000       0.503903000000000        1.00000000000000             
  0.000000000000000E+000                                                        
  0.102700000000000       0.383421000000000       0.000000000000000E+000        
   1.00000000000000                                                             
    2    2                                                                      
   1.40700000000000        1.00000000000000       0.000000000000000E+000        
  0.388000000000000       0.000000000000000E+000   1.00000000000000             
    1    1                                                                      
   1.05700000000000        1.00000000000000                                     
FINISH                                                                          
 
********************************************************************************
 ONE- AND TWO-ELECTRON INTEGRALS OVER SYMMETRY-ADAPTED AOS ARE CALCULATED.

  SPHERICAL HARMONICS ARE USED.
  
  INTEGRALS LESS THAN  0.10E-13 ARE NEGLECTED.

  NUCLEAR REPULSION ENERGY :   24.2724009973 A.U.
  @MOLECU-I, ONE ELECTRON INTEGRALS (CPU/WALL):        0.01/       0.03 SECONDS.
  @TWOEL-I,     109008 INTEGRALS OF SYMMETRY TYPE  I I I I
  @TWOEL-I,     336761 INTEGRALS OF SYMMETRY TYPE  I J I J
  @TWOEL-I,     186231 INTEGRALS OF SYMMETRY TYPE  I I J J
  @TWOEL-I,     181498 INTEGRALS OF SYMMETRY TYPE  I J K L
  @TWOEL-I, TOTAL NUMBER OF 2-E INTEGRALS     813498.
  @MOLECU-I, TWO ELECTRON INTEGRALS (CPU/WALL):        0.54/       0.85 SECONDS.
 @CHECKOUT-I, Total execution time (CPU/WALL):        0.56/       0.91 seconds.

Running with 24 threads/proc

--executable xvmol finished with status     0 in        1.11 seconds (walltime).
 --invoking executable--
/home/orgChemistry/bin/cfour_v21/bin/xvmol2ja
 @GETMEM-I,  Allocated    4768 MB of main memory.
 @CHECKOUT-I, Total execution time (CPU/WALL):        0.01/       0.04 seconds.
--executable xvmol2ja finished with status     0 in        0.27 seconds (walltime).
 --invoking executable--
/home/orgChemistry/bin/cfour_v21/bin/xvscf
  There are   74 functions in the AO basis.

  There are 4 irreducible representations.

       Irrep        # of functions
         1                 33
         2                 17
         3                 17
         4                  7


  Parameters for SCF calculation: 
        SCF reference function:  RHF  
  Maximum number of iterations:  150
     Full symmetry point group: CXv 
     Computational point group: C2v 
        Initial density matrix: MOREAD                 
     SCF convergence tolerance: 10**(- 8)
  DIIS convergence acceleration:  ON
          Latest start for DIIS:   8
                     DIIS order:   6

  Memory information:     278819 words required.
  Fock matrices are constructed from AO integral file.
 @GETMEM-I,  Allocated       2 MB of main memory.
  Initialization and symmetry analysis required      0.002 seconds.

  @INITGES-I, Occupancies from core Hamiltonian:

          Alpha population by irrep:   5    1    1    0
           Beta population by irrep:   5    1    1    0


 total no. of electrons in initial guess :  0.000000000000000E+000
  --------------------------------------------------------------------
  Iteration         Total Energy            Largest Density Difference
  --------------------------------------------------------------------
       0            24.272400997293925              0.0000000000D+00
   current occupation vector 
     5  1  1  0
     5  1  1  0
       1           -74.232215134083390              0.1499510200D+02
   current occupation vector 
     5  1  1  0
     5  1  1  0
       2           -81.799783481890927              0.2055812823D+02
   current occupation vector 
     5  1  1  0
     5  1  1  0
       3           -84.602917882658829              0.2002906415D+02
   current occupation vector 
     5  1  1  0
     5  1  1  0
       4           -81.297602037988852              0.6158667324D+01
   current occupation vector 
     5  1  1  0
     5  1  1  0
       5           -84.081643602144155              0.5751284714D+01
   current occupation vector 
     5  1  1  0
     5  1  1  0
       6           -81.029345843815676              0.5764120732D+01
   current occupation vector 
     5  1  1  0
     5  1  1  0
       7           -84.098960027582834              0.5647824508D+01
   current occupation vector 
     5  1  1  0
     5  1  1  0
       8           -81.026268168321977              0.5648318744D+01
   current occupation vector 
     5  1  1  0
     5  1  1  0
       9           -90.731873256425402              0.4136893701D+01
   current occupation vector 
     5  1  1  0
     5  1  1  0
      10           -92.774390532663119              0.9807938107D+00
   current occupation vector 
     5  1  1  0
     5  1  1  0
      11           -92.883616496206400              0.3171375422D+00
   current occupation vector 
     5  1  1  0
     5  1  1  0
      12           -92.892102384556210              0.9253413463D-01
   current occupation vector 
     5  1  1  0
     5  1  1  0
      13           -92.892605404848183              0.3073539516D-01
   current occupation vector 
     5  1  1  0
     5  1  1  0
      14           -92.892623930530732              0.1020340765D-01
   current occupation vector 
     5  1  1  0
     5  1  1  0
      15           -92.892624626725961              0.1342471265D-02
   current occupation vector 
     5  1  1  0
     5  1  1  0
      16           -92.892624658296853              0.3529354932D-03
   current occupation vector 
     5  1  1  0
     5  1  1  0
      17           -92.892624660160806              0.5764773391D-04
   current occupation vector 
     5  1  1  0
     5  1  1  0
      18           -92.892624660327201              0.1733519195D-04
   current occupation vector 
     5  1  1  0
     5  1  1  0
      19           -92.892624660328835              0.1486187409D-05
   current occupation vector 
     5  1  1  0
     5  1  1  0
      20           -92.892624660328480              0.4158646497D-06
   current occupation vector 
     5  1  1  0
     5  1  1  0
      21           -92.892624660328920              0.1073675214D-06
   current occupation vector 
     5  1  1  0
     5  1  1  0
      22           -92.892624660328181              0.1418674014D-07
   current occupation vector 
     5  1  1  0
     5  1  1  0

  SCF has converged.

 Density matrix saved to file den.dat
 total electron number:   14.0000000000000     
     E(SCF)=       -92.892624660329062              0.2230583496D-08

  Eigenvector printing suppressed.

 @PUTMOS-I, Writing converged MOs to NEWMOS. 
 @PUTMOS-I, Symmetry   1 Full Blocks  8 Partial Blocksize   1
 @PUTMOS-I, Symmetry   2 Full Blocks  4 Partial Blocksize   1
 @PUTMOS-I, Symmetry   3 Full Blocks  4 Partial Blocksize   1
 @PUTMOS-I, Symmetry   4 Full Blocks  1 Partial Blocksize   3
 @PUTFOCK-I, Writing converged Fock matrix to NEWFOCK. 
 @PUTFOCK-I, Symmetry   1 Full Blocks  8 Partial Blocksize   1
 @PUTFOCK-I, Symmetry   2 Full Blocks  4 Partial Blocksize   1
 @PUTFOCK-I, Symmetry   3 Full Blocks  4 Partial Blocksize   1
 @PUTFOCK-I, Symmetry   4 Full Blocks  1 Partial Blocksize   3


 
  ORBITAL EIGENVALUES (ALPHA)  (1H = 27.2113834 eV)

       MO #        E(hartree)               E(eV)           FULLSYM    COMPSYM
       ----   --------------------   --------------------   -------   ---------
    1     1         -15.6022496321        -424.5587966416     SG+        A1 (1)
    2     2         -11.2918350511        -307.2664528659     SG+        A1 (1)
    3     3          -1.2655124768         -34.4363452024     SG+        A1 (1)
    4     4          -0.8739409273         -23.7811416415     SG+        A1 (1)
    5    34          -0.5205810022         -14.1657292419      PI        B1 (2)
    6    51          -0.5205810022         -14.1657292419      PI        B2 (3)
    7     5          -0.4885698411         -13.2946612644     SG+        A1 (1)
  +++++++++++++++++++++++++++++++++++++++++++++++++++++++++++++++++++++++++++++
    8     6           0.1320539184           3.5933698035     SG+        A1 (1)
    9    52           0.1760760810           4.7912737489      PI        B2 (3)
   10    35           0.1760760810           4.7912737489      PI        B1 (2)
   11     7           0.3028796904           8.2417753798     SG+        A1 (1)
   12     8           0.4430432339          12.0558193001     SG+        A1 (1)
   13    53           0.4692892316          12.7700092079      PI        B2 (3)
   14    36           0.4692892316          12.7700092079      PI        B1 (2)
   15     9           0.5191682635          14.1272866665     SG+        A1 (1)
   16    37           0.6751399297          18.3714914755      PI        B1 (2)
   17    54           0.6751399297          18.3714914755      PI        B2 (3)
   18    10           0.7214470868          19.6315732808     SG+        A1 (1)
   19    68           0.8428593894          22.9353699980      DE        A2 (4)
   20    11           0.8428593894          22.9353699980      DE        A1 (1)
   21    38           0.8828000186          24.0222097708      PI        B1 (2)
   22    55           0.8828000186          24.0222097708      PI        B2 (3)
   23    12           0.9661603420          26.2905594907     SG+        A1 (1)
   24    13           1.0936768063          29.7604588933     SG+        A1 (1)
   25    39           1.2889254590          35.0734448402      PI        B1 (2)
   26    56           1.2889254590          35.0734448402      PI        B2 (3)
   27    14           1.3755746624          37.4312895341      DE        A1 (1)
   28    69           1.3755746624          37.4312895341      DE        A2 (4)
   29    15           1.4612066164          39.7614534647     SG+        A1 (1)
   30    16           1.7314409602          47.1149038017     SG+        A1 (1)
   31    40           1.8521778553          50.4003217459      PI        B1 (2)
   32    57           1.8521778553          50.4003217459      PI        B2 (3)
   33    17           2.2197564636          60.4026441846     SG+        A1 (1)
   34    58           2.3580819488          64.1666719978      PI        B2 (3)
   35    41           2.3580819488          64.1666719978      PI        B1 (2)
   36    18           2.4489554922          66.6394668291     SG+        A1 (1)
   37    42           2.9626331601          80.6173467926      PH        B1 (2)
   38    59           2.9626331601          80.6173467926      PH        B2 (3)
   39    70           2.9953974144          81.5089074790      DE        A2 (4)
   40    19           2.9953974144          81.5089074790      DE        A1 (1)
   41    20           3.1274415045          85.1020098412     SG+        A1 (1)
   42    43           3.2896388507          89.5156240136      PI        B1 (2)
   43    60           3.2896388507          89.5156240136      PI        B2 (3)
   44    71           3.3087008298          90.0343268353      DE        A2 (4)
   45    21           3.3087008298          90.0343268353      DE        A1 (1)
   46    44           3.3828375284          92.0516889640      PI        B1 (2)
   47    61           3.3828375284          92.0516889640      PI        B2 (3)
   48    22           3.4340514022          93.4452893210     SG+        A1 (1)
   49    72           3.5988338247          97.9292469973      DE        A2 (4)
   50    23           3.5988338247          97.9292469973      DE        A1 (1)
   51    24           3.6581288338          99.5427462218     SG+        A1 (1)
   52    45           3.7589275646         102.2856191326      PI        B1 (2)
   53    62           3.7589275646         102.2856191326      PI        B2 (3)
   54    46           4.0985620553         111.5275434764      PI        B1 (2)
   55    63           4.0985620553         111.5275434764      PI        B2 (3)
   56    47           4.2851157434         116.6039274059      PH        B1 (2)
   57    64           4.2851157434         116.6039274059      PH        B2 (3)
   58    25           4.3674380225         118.8440305047     SG+        A1 (1)
   59    48           4.5334678834         123.3619327056      PI        B1 (2)
   60    65           4.5334678834         123.3619327057      PI        B2 (3)
   61    26           4.7813956659         130.1083906530     SG+        A1 (1)
   62    73           4.8942526336         133.1793848691      DE        A2 (4)
   63    27           4.8942526336         133.1793848691      DE        A1 (1)
   64    28           4.9603749613         134.9786648787     SG+        A1 (1)
   65    29           5.1075747701         138.9841753141      DE        A1 (1)
   66    74           5.1075747701         138.9841753141      DE        A2 (4)
   67    49           5.6296589858         153.1908090736      PI        B1 (2)
   68    66           5.6296589858         153.1908090736      PI        B2 (3)
   69    30           6.6619770327         181.2816112397     SG+        A1 (1)
   70    50           6.7383132721         183.3588259158      PI        B1 (2)
   71    67           6.7383132721         183.3588259158      PI        B2 (3)
   72    31           7.3387035148         199.6962749999     SG+        A1 (1)
   73    32           9.2353987263         251.3079755933     SG+        A1 (1)
   74    33          14.8142497892         403.1162307977     SG+        A1 (1)


  VSCF finished.

 @CHECKOUT-I, Total execution time (CPU/WALL):        0.21/       0.53 seconds.
--executable xvscf finished with status     0 in        0.86 seconds (walltime).
 --invoking executable--
/home/orgChemistry/bin/cfour_v21/bin/xvtran
 @GETMEM-I,  Allocated    4768 MB of main memory.
  Partial RHF integral transformation
  Frozen-core orbitals requested within analytic derivative calculation
  Transformation of IIII integrals :
  1 pass through the AO integral file was required.
      109008 AO integrals were read.
       74201 MO integrals were written to HF2.
  Transformation of IIJJ integrals :
  1 pass through the AO integral file was required.
      186231 AO integrals were read.
       70487 MO integrals were written to HF2.
  Transformation of IJIJ integrals :
  1 pass through the AO integral file was required.
      336761 AO integrals were read.
      129100 MO integrals were written to HF2.
  Transformation of IJKL integrals :
  1 pass through the AO integral file was required.
      181498 AO integrals were read.
       49249 MO integrals were written to HF2.
  Summary of active molecular orbitals: 
------------------------------------------------------------------------
 
  Index      Eigenvalue    Symmetry    Index      Eigenvalue    Symmetry
------------------------------------------------------------------------
     1       -15.6022496        1        38         0.6751399        2
     2       -11.2918351        1        39         0.8828000        2
     3        -1.2655125        1        40         1.2889255        2
     4        -0.8739409        1        41         1.8521779        2
     5        -0.4885698        1        42         2.3580819        2
     6        -0.5205810        2        43         2.9626332        2
     7        -0.5205810        3        44         3.2896389        2
     8         0.1320539        1        45         3.3828375        2
     9         0.3028797        1        46         3.7589276        2
    10         0.4430432        1        47         4.0985621        2
    11         0.5191683        1        48         4.2851157        2
    12         0.7214471        1        49         4.5334679        2
    13         0.8428594        1        50         5.6296590        2
    14         0.9661603        1        51         6.7383133        2
    15         1.0936768        1        52         0.1760761        3
    16         1.3755747        1        53         0.4692892        3
    17         1.4612066        1        54         0.6751399        3
    18         1.7314410        1        55         0.8828000        3
    19         2.2197565        1        56         1.2889255        3
    20         2.4489555        1        57         1.8521779        3
    21         2.9953974        1        58         2.3580819        3
    22         3.1274415        1        59         2.9626332        3
    23         3.3087008        1        60         3.2896389        3
    24         3.4340514        1        61         3.3828375        3
    25         3.5988338        1        62         3.7589276        3
    26         3.6581288        1        63         4.0985621        3
    27         4.3674380        1        64         4.2851157        3
    28         4.7813957        1        65         4.5334679        3
    29         4.8942526        1        66         5.6296590        3
    30         4.9603750        1        67         6.7383133        3
    31         5.1075748        1        68         0.8428594        4
    32         6.6619770        1        69         1.3755747        4
    33         7.3387035        1        70         2.9953974        4
    34         9.2353987        1        71         3.3087008        4
    35        14.8142498        1        72         3.5988338        4
    36         0.1760761        2        73         4.8942526        4
    37         0.4692892        2        74         5.1075748        4
------------------------------------------------------------------------
  -15.6022496321011       -11.2918350511333       -1.26551247675372     
 -0.873940927293426      -0.488569841119817      -0.520581002208448     
 -0.520581002208442       0.132053918418015       0.302879690408802     
  0.443043233889734       0.519168263474588       0.721447086766442     
  0.842859389429212       0.966160341950762        1.09367680634959     
   1.37557466240612        1.46120661637233        1.73144096017162     
   2.21975646356195        2.44895549224721        2.99539741441465     
   3.12744150454172        3.30870082979026        3.43405140221708     
   3.59883382471714        3.65812883375073        4.36743802245261     
   4.78139566593904        4.89425263358968        4.96037496126311     
   5.10757477012881        6.66197703273432        7.33870351479089     
   9.23539872630335        14.8142497892145       0.176076081044780     
  0.469289231648699       0.675139929693535       0.882800018566990     
   1.28892545904818        1.85217785531109        2.35808194881438     
   2.96263316008352        3.28963885068699        3.38283752835509     
   3.75892756458024        4.09856205533446        4.28511574336008     
   4.53346788335827        5.62965898578972        6.73831327207743     
  0.176076081044778       0.469289231648692       0.675139929693569     
  0.882800018566994        1.28892545904820        1.85217785531111     
   2.35808194881434        2.96263316008353        3.28963885068717     
   3.38283752835509        3.75892756458030        4.09856205533461     
   4.28511574336008        4.53346788335836        5.62965898578977     
   6.73831327207761       0.842859389429206        1.37557466240613     
   2.99539741441465        3.30870082979024        3.59883382471714     
   4.89425263358967        5.10757477012881     
 @CHECKOUT-I, Total execution time (CPU/WALL):        0.06/       0.15 seconds.
--executable xvtran finished with status     0 in        0.37 seconds (walltime).
 --invoking executable--
/home/orgChemistry/bin/cfour_v21/bin/xintprc
 @GETMEM-I,  Allocated    4768 MB of main memory.
  @GMOIAA-I, Processing MO integrals for spin case AA.
  @GMOIAA-I, Generation of integral list completed.
                      TYPE                NUMBER
                      ----               --------
                      PPPP                     0
                      PPPH                272024
                      PPHH                 29230
                      PHPH                 17587
                      PHHH                  4012
                      HHHH                   184

                     TOTAL                323037

  @FORMT2-I, Second-order MP correlation energies:
            ------------------------------------------------
            E(SCF)                  =    -92.892624660329 a.u.
            E2(AA)                  =     -0.040356566673 a.u.
            E2(AB)                  =     -0.251354740754 a.u.
            E2(TOT)                 =     -0.332067874099 a.u.
            Total MP2 energy        =    -93.224692534429 a.u.
            ------------------------------------------------
   Largest T2 amplitudes for spin case AB:
       _       _                 _       _                 _       _
   i   j   a   b             i   j   a   b             i   j   a   b
-----------------------------------------------------------------------------
[  7   7  52  52]-0.06105 [  6   6  36  36]-0.06105 [  7   6  52  36]-0.04892
[  6   7  36  52]-0.04892 [  5   5  52  52]-0.03782 [  5   5  36  36]-0.03782
[  6   6  36  38]-0.02881 [  6   6  38  36]-0.02881 [  7   7  54  52]-0.02881
[  7   7  52  54]-0.02881 [  6   6  38  38]-0.02662 [  7   7  54  54]-0.02662
[  7   6  54  36]-0.02346 [  6   7  36  54]-0.02346 [  7   6  52  38]-0.02346
-----------------------------------------------------------------------------
   Norm of T2AB vector (    60523 symmetry allowed elements):  0.2862162219.
-----------------------------------------------------------------------------
 @CHECKOUT-I, Total execution time (CPU/WALL):        0.05/       0.26 seconds.
--executable xintprc finished with status     0 in        0.44 seconds (walltime).
  calling xecc 
 --invoking executable--
/home/orgChemistry/bin/cfour_v21/bin/xecc
 @GETMEM-I,  Allocated    4768 MB of main memory.
 CCSD(T) energy will be calculated.
 AO based algorithm is used. 
   Frozen core orbitals in analytic derivative calculation
 Largest T2 amplitudes for spin case AB:
        _       _                 _       _                 _       _
    i   j   a   b             i   j   a   b             i   j   a   b
 -----------------------------------------------------------------------------
 [  7   7  52  52]-0.06105 [  6   6  36  36]-0.06105 [  7   6  52  36]-0.04892
 [  6   7  36  52]-0.04892 [  5   5  52  52]-0.03782 [  5   5  36  36]-0.03782
 [  6   6  36  38]-0.02881 [  6   6  38  36]-0.02881 [  7   7  54  52]-0.02881
 [  7   7  52  54]-0.02881 [  6   6  38  38]-0.02662 [  7   7  54  54]-0.02662
 [  7   6  54  36]-0.02346 [  6   7  36  54]-0.02346 [  7   6  52  38]-0.02346
 -----------------------------------------------------------------------------
 Norm of T2AB vector (    60523 symmetry allowed elements):  0.2862162219.
 -----------------------------------------------------------------------------
 The total correlation energy is -0.332067874099 a.u.
 Resorts of amplitudes and integrals (CPU/WALL):       0.00/       0.01 seconds.
 Starting iterative solution of the CC equations.
 The DIIS procedure is used to accelerate convergence.
 5 expansion vectors are used in the DIIS extrapolation.
 Convergence criterium is 10**(-10).
 Maximum number of iterations is 100.
 >>>>>>>>>>>>>>>>>>>>>>>>>>>>>>>>>>>>>>>>>>>>>>>>>>>>>>>>>>>>>>>>>>>>>>>>>>>>>>>
 Iteration Nr.   1 started:
 Generation of Intermediates required (CPU/WALL):      0.03/       0.07 seconds.
 Transformation of t(ab,ij) amplitudes required    0.0 seconds.
 Contraction of t(mu nu,ij) with AO integrals required    0.1 seconds.
 Backtransformation of t(mu nu,ij) increments required    0.0 seconds.
 Construction of Hbar required (CPU/WALL):             0.08/       0.14 seconds.
   Frozen core orbitals in analytic derivative calculation
 Amplitude changes are:
 -------------------------------------------------------------------
              Spin      RMS          Max.      Max. change for
  Amplitude   Case     Change       Change       i    j    a    b
 -------------------------------------------------------------------
     T1        AA    0.0002447730 0.0187182971    7        52
     T2        AB    0.0000007167-0.0090573764    5    5   52   52
 -------------------------------------------------------------------
 The total correlation energy is -0.328615582002 a.u.
 Convergence information after     1 iterations: 
 Largest element of residual vector :  0.18718297E-01.
 Largest element of DIIS residual   :  0.18718297E-01.
 Iteration Nr.   1 required (CPU/WALL):                0.12/       0.25 seconds.
 >>>>>>>>>>>>>>>>>>>>>>>>>>>>>>>>>>>>>>>>>>>>>>>>>>>>>>>>>>>>>>>>>>>>>>>>>>>>>>>
 Iteration Nr.   2 started:
 Generation of Intermediates required (CPU/WALL):      0.03/       0.07 seconds.
 Transformation of t(ab,ij) amplitudes required    0.0 seconds.
 Contraction of t(mu nu,ij) with AO integrals required    0.1 seconds.
 Backtransformation of t(mu nu,ij) increments required    0.0 seconds.
 Construction of Hbar required (CPU/WALL):             0.08/       0.14 seconds.
   Frozen core orbitals in analytic derivative calculation
 Amplitude changes are:
 -------------------------------------------------------------------
              Spin      RMS          Max.      Max. change for
  Amplitude   Case     Change       Change       i    j    a    b
 -------------------------------------------------------------------
     T1        AA    0.0000372290 0.0032081450    5        11
     T2        AB    0.0000003729-0.0073224782    7    7   52   52
 -------------------------------------------------------------------
 The total correlation energy is -0.339961365027 a.u.
 Convergence information after     2 iterations: 
 Largest element of residual vector : -0.73224782E-02.
 Largest element of DIIS residual   : -0.64155669E-02.
 Iteration Nr.   2 required (CPU/WALL):                0.12/       0.25 seconds.
 >>>>>>>>>>>>>>>>>>>>>>>>>>>>>>>>>>>>>>>>>>>>>>>>>>>>>>>>>>>>>>>>>>>>>>>>>>>>>>>
 Iteration Nr.   3 started:
 Generation of Intermediates required (CPU/WALL):      0.03/       0.07 seconds.
 Transformation of t(ab,ij) amplitudes required    0.0 seconds.
 Contraction of t(mu nu,ij) with AO integrals required    0.1 seconds.
 Backtransformation of t(mu nu,ij) increments required    0.0 seconds.
 Construction of Hbar required (CPU/WALL):             0.08/       0.14 seconds.
   Frozen core orbitals in analytic derivative calculation
 Amplitude changes are:
 -------------------------------------------------------------------
              Spin      RMS          Max.      Max. change for
  Amplitude   Case     Change       Change       i    j    a    b
 -------------------------------------------------------------------
     T1        AA    0.0000395382 0.0035565658    7        52
     T2        AB    0.0000001231-0.0019762287    5    5   52   52
 -------------------------------------------------------------------
 The total correlation energy is -0.339793492793 a.u.
 Convergence information after     3 iterations: 
 Largest element of residual vector :  0.35565658E-02.
 Largest element of DIIS residual   :  0.23223631E-02.
 Iteration Nr.   3 required (CPU/WALL):                0.12/       0.25 seconds.
 >>>>>>>>>>>>>>>>>>>>>>>>>>>>>>>>>>>>>>>>>>>>>>>>>>>>>>>>>>>>>>>>>>>>>>>>>>>>>>>
 Iteration Nr.   4 started:
 Generation of Intermediates required (CPU/WALL):      0.03/       0.07 seconds.
 Transformation of t(ab,ij) amplitudes required    0.0 seconds.
 Contraction of t(mu nu,ij) with AO integrals required    0.1 seconds.
 Backtransformation of t(mu nu,ij) increments required    0.0 seconds.
 Construction of Hbar required (CPU/WALL):             0.08/       0.14 seconds.
   Frozen core orbitals in analytic derivative calculation
 Amplitude changes are:
 -------------------------------------------------------------------
              Spin      RMS          Max.      Max. change for
  Amplitude   Case     Change       Change       i    j    a    b
 -------------------------------------------------------------------
     T1        AA    0.0000080024-0.0008128755    5         8
     T2        AB    0.0000000326-0.0006161145    7    7   52   52
 -------------------------------------------------------------------
 The total correlation energy is -0.341255431736 a.u.
 Convergence information after     4 iterations: 
 Largest element of residual vector : -0.81287549E-03.
 Largest element of DIIS residual   : -0.74717323E-03.
 Iteration Nr.   4 required (CPU/WALL):                0.12/       0.25 seconds.
 >>>>>>>>>>>>>>>>>>>>>>>>>>>>>>>>>>>>>>>>>>>>>>>>>>>>>>>>>>>>>>>>>>>>>>>>>>>>>>>
 Iteration Nr.   5 started:
 Generation of Intermediates required (CPU/WALL):      0.03/       0.07 seconds.
 Transformation of t(ab,ij) amplitudes required    0.0 seconds.
 Contraction of t(mu nu,ij) with AO integrals required    0.1 seconds.
 Backtransformation of t(mu nu,ij) increments required    0.0 seconds.
 Construction of Hbar required (CPU/WALL):             0.08/       0.14 seconds.
   Frozen core orbitals in analytic derivative calculation
 Amplitude changes are:
 -------------------------------------------------------------------
              Spin      RMS          Max.      Max. change for
  Amplitude   Case     Change       Change       i    j    a    b
 -------------------------------------------------------------------
     T1        AA    0.0000036359-0.0003505131    5         8
     T2        AB    0.0000000129-0.0002279863    6    6   36   36
 -------------------------------------------------------------------
 The total correlation energy is -0.341398863250 a.u.
 Convergence information after     5 iterations: 
 Largest element of residual vector : -0.35051310E-03.
 Largest element of DIIS residual   : -0.18973700E-03.
 Iteration Nr.   5 required (CPU/WALL):                0.12/       0.26 seconds.
 Largest T1 amplitudes for spin case AA:
    i       a                 i       a                 i       a    
 -----------------------------------------------------------------------------
 [  6      36    ] 0.02197 [  7      52    ] 0.02197 [  7      53    ] 0.01804
 [  6      37    ] 0.01804 [  5       8    ]-0.01309 [  6      39    ] 0.01071
 [  7      55    ] 0.01071 [  5      11    ] 0.01027 [  5      10    ] 0.00845
 [  5      14    ]-0.00778 [  6      44    ] 0.00672 [  7      60    ] 0.00672
 [  7      58    ] 0.00581 [  6      42    ] 0.00581 [  7      57    ] 0.00537
 -----------------------------------------------------------------------------
 Norm of T1AA vector (      172 symmetry allowed elements):  0.0511238469.
 -----------------------------------------------------------------------------
 Largest T2 amplitudes for spin case AB:
        _       _                 _       _                 _       _
    i   j   a   b             i   j   a   b             i   j   a   b
 -----------------------------------------------------------------------------
 [  7   7  52  52]-0.07058 [  6   6  36  36]-0.07058 [  5   5  52  52]-0.05434
 [  5   5  36  36]-0.05434 [  7   6  52  36]-0.04631 [  6   7  36  52]-0.04631
 [  6   6  38  36]-0.03379 [  6   6  36  38]-0.03379 [  7   7  54  52]-0.03379
 [  7   7  52  54]-0.03379 [  7   7  54  54]-0.02740 [  6   6  38  38]-0.02740
 [  5   5  11  11]-0.02735 [  5   5  10  10]-0.02287 [  7   6  54  36]-0.02210
 -----------------------------------------------------------------------------
 Norm of T2AB vector (    60523 symmetry allowed elements):  0.3208291414.
 -----------------------------------------------------------------------------
 >>>>>>>>>>>>>>>>>>>>>>>>>>>>>>>>>>>>>>>>>>>>>>>>>>>>>>>>>>>>>>>>>>>>>>>>>>>>>>>
 Iteration Nr.   6 started:
 Generation of Intermediates required (CPU/WALL):      0.03/       0.07 seconds.
 Transformation of t(ab,ij) amplitudes required    0.0 seconds.
 Contraction of t(mu nu,ij) with AO integrals required    0.1 seconds.
 Backtransformation of t(mu nu,ij) increments required    0.0 seconds.
 Construction of Hbar required (CPU/WALL):             0.08/       0.14 seconds.
   Frozen core orbitals in analytic derivative calculation
 Amplitude changes are:
 -------------------------------------------------------------------
              Spin      RMS          Max.      Max. change for
  Amplitude   Case     Change       Change       i    j    a    b
 -------------------------------------------------------------------
     T1        AA    0.0000010535-0.0001513791    5         8
     T2        AB    0.0000000030 0.0000493308    5    5   36   36
 -------------------------------------------------------------------
 The total correlation energy is -0.341411333542 a.u.
 Convergence information after     6 iterations: 
 Largest element of residual vector : -0.15137910E-03.
 Largest element of DIIS residual   : -0.10914708E-03.
 Iteration Nr.   6 required (CPU/WALL):                0.12/       0.26 seconds.
 >>>>>>>>>>>>>>>>>>>>>>>>>>>>>>>>>>>>>>>>>>>>>>>>>>>>>>>>>>>>>>>>>>>>>>>>>>>>>>>
 Iteration Nr.   7 started:
 Generation of Intermediates required (CPU/WALL):      0.03/       0.07 seconds.
 Transformation of t(ab,ij) amplitudes required    0.0 seconds.
 Contraction of t(mu nu,ij) with AO integrals required    0.1 seconds.
 Backtransformation of t(mu nu,ij) increments required    0.0 seconds.
 Construction of Hbar required (CPU/WALL):             0.08/       0.14 seconds.
   Frozen core orbitals in analytic derivative calculation
 Amplitude changes are:
 -------------------------------------------------------------------
              Spin      RMS          Max.      Max. change for
  Amplitude   Case     Change       Change       i    j    a    b
 -------------------------------------------------------------------
     T1        AA    0.0000003611-0.0000524234    5         8
     T2        AB    0.0000000012 0.0000189868    5    5   52   52
 -------------------------------------------------------------------
 The total correlation energy is -0.341414092246 a.u.
 Convergence information after     7 iterations: 
 Largest element of residual vector : -0.52423351E-04.
 Largest element of DIIS residual   : -0.14145596E-04.
 Iteration Nr.   7 required (CPU/WALL):                0.12/       0.26 seconds.
 >>>>>>>>>>>>>>>>>>>>>>>>>>>>>>>>>>>>>>>>>>>>>>>>>>>>>>>>>>>>>>>>>>>>>>>>>>>>>>>
 Iteration Nr.   8 started:
 Generation of Intermediates required (CPU/WALL):      0.03/       0.07 seconds.
 Transformation of t(ab,ij) amplitudes required    0.0 seconds.
 Contraction of t(mu nu,ij) with AO integrals required    0.1 seconds.
 Backtransformation of t(mu nu,ij) increments required    0.0 seconds.
 Construction of Hbar required (CPU/WALL):             0.08/       0.14 seconds.
   Frozen core orbitals in analytic derivative calculation
 Amplitude changes are:
 -------------------------------------------------------------------
              Spin      RMS          Max.      Max. change for
  Amplitude   Case     Change       Change       i    j    a    b
 -------------------------------------------------------------------
     T1        AA    0.0000001451-0.0000207670    5         8
     T2        AB    0.0000000003 0.0000041086    7    6   36   52
 -------------------------------------------------------------------
 The total correlation energy is -0.341413968296 a.u.
 Convergence information after     8 iterations: 
 Largest element of residual vector : -0.20766961E-04.
 Largest element of DIIS residual   : -0.11815002E-04.
 Iteration Nr.   8 required (CPU/WALL):                0.12/       0.26 seconds.
 >>>>>>>>>>>>>>>>>>>>>>>>>>>>>>>>>>>>>>>>>>>>>>>>>>>>>>>>>>>>>>>>>>>>>>>>>>>>>>>
 Iteration Nr.   9 started:
 Generation of Intermediates required (CPU/WALL):      0.03/       0.07 seconds.
 Transformation of t(ab,ij) amplitudes required    0.0 seconds.
 Contraction of t(mu nu,ij) with AO integrals required    0.1 seconds.
 Backtransformation of t(mu nu,ij) increments required    0.0 seconds.
 Construction of Hbar required (CPU/WALL):             0.08/       0.14 seconds.
   Frozen core orbitals in analytic derivative calculation
 Amplitude changes are:
 -------------------------------------------------------------------
              Spin      RMS          Max.      Max. change for
  Amplitude   Case     Change       Change       i    j    a    b
 -------------------------------------------------------------------
     T1        AA    0.0000000223-0.0000022200    5         8
     T2        AB    0.0000000002-0.0000017441    5    5   36   36
 -------------------------------------------------------------------
 The total correlation energy is -0.341414902499 a.u.
 Convergence information after     9 iterations: 
 Largest element of residual vector : -0.22199694E-05.
 Largest element of DIIS residual   : -0.25439778E-05.
 Iteration Nr.   9 required (CPU/WALL):                0.12/       0.26 seconds.
 >>>>>>>>>>>>>>>>>>>>>>>>>>>>>>>>>>>>>>>>>>>>>>>>>>>>>>>>>>>>>>>>>>>>>>>>>>>>>>>
 Iteration Nr.  10 started:
 Generation of Intermediates required (CPU/WALL):      0.03/       0.07 seconds.
 Transformation of t(ab,ij) amplitudes required    0.0 seconds.
 Contraction of t(mu nu,ij) with AO integrals required    0.1 seconds.
 Backtransformation of t(mu nu,ij) increments required    0.0 seconds.
 Construction of Hbar required (CPU/WALL):             0.08/       0.14 seconds.
   Frozen core orbitals in analytic derivative calculation
 Amplitude changes are:
 -------------------------------------------------------------------
              Spin      RMS          Max.      Max. change for
  Amplitude   Case     Change       Change       i    j    a    b
 -------------------------------------------------------------------
     T1        AA    0.0000000177-0.0000022688    5         8
     T2        AB    0.0000000000-0.0000008365    5    5   52   52
 -------------------------------------------------------------------
 The total correlation energy is -0.341414870019 a.u.
 Convergence information after    10 iterations: 
 Largest element of residual vector : -0.22687941E-05.
 Largest element of DIIS residual   : -0.94180273E-06.
 Iteration Nr.  10 required (CPU/WALL):                0.12/       0.26 seconds.
 Largest T1 amplitudes for spin case AA:
    i       a                 i       a                 i       a    
 -----------------------------------------------------------------------------
 [  7      52    ] 0.02204 [  6      36    ] 0.02204 [  7      53    ] 0.01806
 [  6      37    ] 0.01806 [  5       8    ]-0.01345 [  6      39    ] 0.01071
 [  7      55    ] 0.01071 [  5      11    ] 0.01041 [  5      10    ] 0.00853
 [  5      14    ]-0.00777 [  6      44    ] 0.00672 [  7      60    ] 0.00672
 [  7      58    ] 0.00581 [  6      42    ] 0.00581 [  6      41    ] 0.00537
 -----------------------------------------------------------------------------
 Norm of T1AA vector (      172 symmetry allowed elements):  0.0513398365.
 -----------------------------------------------------------------------------
 Largest T2 amplitudes for spin case AB:
        _       _                 _       _                 _       _
    i   j   a   b             i   j   a   b             i   j   a   b
 -----------------------------------------------------------------------------
 [  7   7  52  52]-0.07061 [  6   6  36  36]-0.07061 [  5   5  52  52]-0.05424
 [  5   5  36  36]-0.05424 [  7   6  52  36]-0.04632 [  6   7  36  52]-0.04632
 [  6   6  38  36]-0.03380 [  6   6  36  38]-0.03380 [  7   7  54  52]-0.03380
 [  7   7  52  54]-0.03380 [  6   6  38  38]-0.02739 [  7   7  54  54]-0.02739
 [  5   5  11  11]-0.02737 [  5   5  10  10]-0.02288 [  7   6  54  36]-0.02211
 -----------------------------------------------------------------------------
 Norm of T2AB vector (    60523 symmetry allowed elements):  0.3207996492.
 -----------------------------------------------------------------------------
 >>>>>>>>>>>>>>>>>>>>>>>>>>>>>>>>>>>>>>>>>>>>>>>>>>>>>>>>>>>>>>>>>>>>>>>>>>>>>>>
 Iteration Nr.  11 started:
 Generation of Intermediates required (CPU/WALL):      0.03/       0.08 seconds.
 Transformation of t(ab,ij) amplitudes required    0.0 seconds.
 Contraction of t(mu nu,ij) with AO integrals required    0.1 seconds.
 Backtransformation of t(mu nu,ij) increments required    0.0 seconds.
 Construction of Hbar required (CPU/WALL):             0.08/       0.14 seconds.
   Frozen core orbitals in analytic derivative calculation
 Amplitude changes are:
 -------------------------------------------------------------------
              Spin      RMS          Max.      Max. change for
  Amplitude   Case     Change       Change       i    j    a    b
 -------------------------------------------------------------------
     T1        AA    0.0000000055-0.0000005471    5         8
     T2        AB    0.0000000000-0.0000004066    5    5   36   36
 -------------------------------------------------------------------
 The total correlation energy is -0.341415024787 a.u.
 Convergence information after    11 iterations: 
 Largest element of residual vector : -0.54713419E-06.
 Largest element of DIIS residual   : -0.44212766E-06.
 Iteration Nr.  11 required (CPU/WALL):                0.12/       0.26 seconds.
 >>>>>>>>>>>>>>>>>>>>>>>>>>>>>>>>>>>>>>>>>>>>>>>>>>>>>>>>>>>>>>>>>>>>>>>>>>>>>>>
 Iteration Nr.  12 started:
 Generation of Intermediates required (CPU/WALL):      0.03/       0.07 seconds.
 Transformation of t(ab,ij) amplitudes required    0.0 seconds.
 Contraction of t(mu nu,ij) with AO integrals required    0.1 seconds.
 Backtransformation of t(mu nu,ij) increments required    0.0 seconds.
 Construction of Hbar required (CPU/WALL):             0.08/       0.14 seconds.
   Frozen core orbitals in analytic derivative calculation
 Amplitude changes are:
 -------------------------------------------------------------------
              Spin      RMS          Max.      Max. change for
  Amplitude   Case     Change       Change       i    j    a    b
 -------------------------------------------------------------------
     T1        AA    0.0000000017-0.0000001585    5         8
     T2        AB    0.0000000000-0.0000001441    5    5   52   52
 -------------------------------------------------------------------
 The total correlation energy is -0.341415058801 a.u.
 Convergence information after    12 iterations: 
 Largest element of residual vector : -0.15854471E-06.
 Largest element of DIIS residual   :  0.71542070E-07.
 Iteration Nr.  12 required (CPU/WALL):                0.12/       0.26 seconds.
 >>>>>>>>>>>>>>>>>>>>>>>>>>>>>>>>>>>>>>>>>>>>>>>>>>>>>>>>>>>>>>>>>>>>>>>>>>>>>>>
 Iteration Nr.  13 started:
 Generation of Intermediates required (CPU/WALL):      0.03/       0.07 seconds.
 Transformation of t(ab,ij) amplitudes required    0.0 seconds.
 Contraction of t(mu nu,ij) with AO integrals required    0.1 seconds.
 Backtransformation of t(mu nu,ij) increments required    0.0 seconds.
 Construction of Hbar required (CPU/WALL):             0.08/       0.14 seconds.
   Frozen core orbitals in analytic derivative calculation
 Amplitude changes are:
 -------------------------------------------------------------------
              Spin      RMS          Max.      Max. change for
  Amplitude   Case     Change       Change       i    j    a    b
 -------------------------------------------------------------------
     T1        AA    0.0000000010-0.0000001384    5         8
     T2        AB    0.0000000000-0.0000000334    7    6   36   52
 -------------------------------------------------------------------
 The total correlation energy is -0.341415080751 a.u.
 Convergence information after    13 iterations: 
 Largest element of residual vector : -0.13841477E-06.
 Largest element of DIIS residual   : -0.65049498E-07.
 Iteration Nr.  13 required (CPU/WALL):                0.12/       0.26 seconds.
 >>>>>>>>>>>>>>>>>>>>>>>>>>>>>>>>>>>>>>>>>>>>>>>>>>>>>>>>>>>>>>>>>>>>>>>>>>>>>>>
 Iteration Nr.  14 started:
 Generation of Intermediates required (CPU/WALL):      0.03/       0.07 seconds.
 Transformation of t(ab,ij) amplitudes required    0.0 seconds.
 Contraction of t(mu nu,ij) with AO integrals required    0.1 seconds.
 Backtransformation of t(mu nu,ij) increments required    0.0 seconds.
 Construction of Hbar required (CPU/WALL):             0.08/       0.14 seconds.
   Frozen core orbitals in analytic derivative calculation
 Amplitude changes are:
 -------------------------------------------------------------------
              Spin      RMS          Max.      Max. change for
  Amplitude   Case     Change       Change       i    j    a    b
 -------------------------------------------------------------------
     T1        AA    0.0000000004-0.0000000456    5         8
     T2        AB    0.0000000000 0.0000000130    5    5   52   52
 -------------------------------------------------------------------
 The total correlation energy is -0.341415087694 a.u.
 Convergence information after    14 iterations: 
 Largest element of residual vector : -0.45584552E-07.
 Largest element of DIIS residual   : -0.19146855E-07.
 Iteration Nr.  14 required (CPU/WALL):                0.12/       0.26 seconds.
 >>>>>>>>>>>>>>>>>>>>>>>>>>>>>>>>>>>>>>>>>>>>>>>>>>>>>>>>>>>>>>>>>>>>>>>>>>>>>>>
 Iteration Nr.  15 started:
 Generation of Intermediates required (CPU/WALL):      0.03/       0.07 seconds.
 Transformation of t(ab,ij) amplitudes required    0.0 seconds.
 Contraction of t(mu nu,ij) with AO integrals required    0.1 seconds.
 Backtransformation of t(mu nu,ij) increments required    0.0 seconds.
 Construction of Hbar required (CPU/WALL):             0.08/       0.14 seconds.
   Frozen core orbitals in analytic derivative calculation
 Amplitude changes are:
 -------------------------------------------------------------------
              Spin      RMS          Max.      Max. change for
  Amplitude   Case     Change       Change       i    j    a    b
 -------------------------------------------------------------------
     T1        AA    0.0000000001-0.0000000184    5         8
     T2        AB    0.0000000000 0.0000000062    5    5    8    8
 -------------------------------------------------------------------
 The total correlation energy is -0.341415091565 a.u.
 Convergence information after    15 iterations: 
 Largest element of residual vector : -0.18353380E-07.
 Largest element of DIIS residual   : -0.42412353E-08.
 Iteration Nr.  15 required (CPU/WALL):                0.12/       0.26 seconds.
 Largest T1 amplitudes for spin case AA:
    i       a                 i       a                 i       a    
 -----------------------------------------------------------------------------
 [  7      52    ] 0.02204 [  6      36    ] 0.02204 [  7      53    ] 0.01806
 [  6      37    ] 0.01806 [  5       8    ]-0.01346 [  6      39    ] 0.01071
 [  7      55    ] 0.01071 [  5      11    ] 0.01041 [  5      10    ] 0.00853
 [  5      14    ]-0.00777 [  6      44    ] 0.00672 [  7      60    ] 0.00672
 [  6      42    ] 0.00581 [  7      58    ] 0.00581 [  6      41    ] 0.00537
 -----------------------------------------------------------------------------
 Norm of T1AA vector (      172 symmetry allowed elements):  0.0513402541.
 -----------------------------------------------------------------------------
 Largest T2 amplitudes for spin case AB:
        _       _                 _       _                 _       _
    i   j   a   b             i   j   a   b             i   j   a   b
 -----------------------------------------------------------------------------
 [  7   7  52  52]-0.07061 [  6   6  36  36]-0.07061 [  5   5  52  52]-0.05425
 [  5   5  36  36]-0.05425 [  7   6  52  36]-0.04632 [  6   7  36  52]-0.04632
 [  6   6  38  36]-0.03380 [  6   6  36  38]-0.03380 [  7   7  54  52]-0.03380
 [  7   7  52  54]-0.03380 [  7   7  54  54]-0.02739 [  6   6  38  38]-0.02739
 [  5   5  11  11]-0.02737 [  5   5  10  10]-0.02288 [  7   6  52  38]-0.02211
 -----------------------------------------------------------------------------
 Norm of T2AB vector (    60523 symmetry allowed elements):  0.3208002601.
 -----------------------------------------------------------------------------
 >>>>>>>>>>>>>>>>>>>>>>>>>>>>>>>>>>>>>>>>>>>>>>>>>>>>>>>>>>>>>>>>>>>>>>>>>>>>>>>
 Iteration Nr.  16 started:
 Generation of Intermediates required (CPU/WALL):      0.03/       0.07 seconds.
 Transformation of t(ab,ij) amplitudes required    0.0 seconds.
 Contraction of t(mu nu,ij) with AO integrals required    0.1 seconds.
 Backtransformation of t(mu nu,ij) increments required    0.0 seconds.
 Construction of Hbar required (CPU/WALL):             0.08/       0.14 seconds.
   Frozen core orbitals in analytic derivative calculation
 Amplitude changes are:
 -------------------------------------------------------------------
              Spin      RMS          Max.      Max. change for
  Amplitude   Case     Change       Change       i    j    a    b
 -------------------------------------------------------------------
     T1        AA    0.0000000000-0.0000000029    5         8
     T2        AB    0.0000000000-0.0000000019    5    5    8    8
 -------------------------------------------------------------------
 The total correlation energy is -0.341415092028 a.u.
 Convergence information after    16 iterations: 
 Largest element of residual vector : -0.28539783E-08.
 Largest element of DIIS residual   : -0.23544347E-08.
 Iteration Nr.  16 required (CPU/WALL):                0.12/       0.26 seconds.
 >>>>>>>>>>>>>>>>>>>>>>>>>>>>>>>>>>>>>>>>>>>>>>>>>>>>>>>>>>>>>>>>>>>>>>>>>>>>>>>
[...]
H 2 R24* 3 A324* 1 D1324*                                                       
                                                                                
R12  =        1.175473653206367                                                 
R23  =        0.870575588169685                                                 
A123 =       90.658390650000001                                                 
R24  =        0.996415334207239                                                 
A324 =       89.341609349999999                                                 
D1324=      180.000000000000000                                                 
                                                                                
*CFOUR(CALC=CCSD(T),BASIS=cc-pVTZ,FROZEN_CORE=1                                 
       CONVERGENCE=8                                                            
       MEMORY_SIZE=5000,MEM_UNIT=MB,ABCDTYPE=AOBASIS,CC_PROG=ECC                
       MULTIPLICITY=1,CHARGE=0                                                  
       SCF_CONV=8,CC_CONV=10)                                                   
                                                                                
********************************************************************************
--executable xjoda finished with status     0 in        0.05 seconds (walltime).
 --invoking executable--
/home/orgChemistry/bin/cfour_v21/bin/xvprop
 @GETMEM-I,  Allocated    4768 MB of main memory.
   Property integrals will be calculated.
    --------------------------------------------------------------
                                   Property evaluated at 
    Property type                X             Y             Z
    --------------------------------------------------------------
    Dipole moment               ----          ----          ----  
    Quadrupole moment           ----          ----          ----  
    Octopole moment             ----          ----          ----  
    Relativisitic corr.         ----          ----          ----  
    Second moment            0.0000000     0.0000000     0.0000000
    Electron density         0.0000000     0.0000000    -1.3047232
    Electron density         0.0000000     0.0000000     0.9166001
    Electron density         0.0000000     0.0000000     2.7995522
    Field gradient           0.0000000     0.0000000    -1.3047232
    Field gradient           0.0000000     0.0000000     0.9166001
    Field gradient           0.0000000     0.0000000     2.7995522
    Potential                0.0000000     0.0000000    -1.3047232
    Potential                0.0000000     0.0000000     0.9166001
    Potential                0.0000000     0.0000000     2.7995522
    --------------------------------------------------------------
 @CHECKOUT-I, Total execution time (CPU/WALL):        0.21/       0.33 seconds.
--executable xvprop finished with status     0 in        0.41 seconds (walltime).
 --invoking executable--
/home/orgChemistry/bin/cfour_v21/bin/xprops
  occupation vector                      5
  @DRVPRP-I, Properties computed from the SCF density matrix follow.
   Components of electric dipole moment 
        X =    0.0000000000   Y =    0.0000000000   Z =    1.1256592207
   Components of second moment 
       XX =    8.9543556911  YY =    8.9543556911  ZZ =   31.2426979143
       XY =    0.0000000000  XZ =    0.0000000000  YZ =    0.0000000000
   Components of electric quadrupole moment 
       XX =   -0.8220279879  YY =   -0.8220279879  ZZ =    1.6440559759
       XY =    0.0000000000  XZ =    0.0000000000  YZ =    0.0000000000
   Components of electric octopole moment 
      XXX =    0.0000000000 YYY =    0.0000000000 ZZZ =   15.5119269499
      XXY =    0.0000000000 XXZ =   -7.7559634749 XYY =    0.0000000000
      YYZ =   -7.7559634749 XZZ =    0.0000000000 YZZ =    0.0000000000
      XYZ =    0.0000000000
  Relativistic correction to the energy 
      Darwin =    0.1764612995 p**4   =   -0.2200889326 Total  =   -0.0436276332
   Charge densities at atomic centers 
          Z-matrix                               Charge
           center                               Density
              1                            122.1324836134
              2                            196.6312628674
              4                              0.3817869186
   Electric field gradient at atomic centers 
                             Z-matrix center   1:
  Atomic charge is                      6
       XX =    0.4998427263  YY =    0.4998427263  ZZ =   -0.9996854526
       XY =    0.0000000000  XZ =    0.0000000000  YZ =    0.0000000000
                             Z-matrix center   2:
  Atomic charge is                      7
       XX =   -0.0078229759  YY =   -0.0078229759  ZZ =    0.0156459518
       XY =    0.0000000000  XZ =    0.0000000000  YZ =    0.0000000000
                          In kHz, Mass number  14
                          CHIxx =       -37.57124
                          CHIyy =       -37.57124
                          CHIzz =        75.14249
                          CHIxy =         0.00000
                          CHIxz =         0.00000
                          CHIyz =         0.00000
                             Z-matrix center   4:
  Atomic charge is                      1
       XX =   -0.2131122340  YY =   -0.2131122340  ZZ =    0.4262244679
       XY =    0.0000000000  XZ =    0.0000000000  YZ =    0.0000000000
                          In kHz, Mass number   2
                          CHIxx =      -143.21124
                          CHIyy =      -143.21124
                          CHIzz =       286.42248
                          CHIxy =         0.00000
                          CHIxz =         0.00000
                          CHIyz =         0.00000
   Electrostatic potential at atomic centers 
          Z-matrix                             Potential
           center                               [<1/r>]
              1                            -14.6987970271
              2                            -18.3210524299
              4                             -0.9220857061
  @DRVPRP-I, Properties computed from the correlated density matrix follow.
   Components of electric dipole moment 
        X =    0.0000000000   Y =    0.0000000000   Z =    1.2181760930
   Components of second moment 
       XX =    8.8848152191  YY =    8.8848152191  ZZ =   31.3814866362
       XY =    0.0000000000  XZ =    0.0000000000  YZ =    0.0000000000
   Components of electric quadrupole moment 
       XX =   -0.7178633910  YY =   -0.7178633910  ZZ =    1.4357267821
       XY =    0.0000000000  XZ =    0.0000000000  YZ =    0.0000000000
   Components of electric octopole moment 
      XXX =    0.0000000000 YYY =    0.0000000000 ZZZ =   13.9748503780
      XXY =    0.0000000000 XXZ =   -6.9874251890 XYY =    0.0000000000
      YYZ =   -6.9874251890 XZZ =    0.0000000000 YZZ =    0.0000000000
      XYZ =    0.0000000000
  Relativistic correction to the energy 
      Darwin =    0.1765246896 p**4   =   -0.2203121399 Total  =   -0.0437874503
   Charge densities at atomic centers 
          Z-matrix                               Charge
           center                               Density
              1                            122.0949052153
              2                            196.7701829373
              4                              0.3926458693
   Electric field gradient at atomic centers 
                             Z-matrix center   1:
  Atomic charge is                      6
       XX =    0.3963604512  YY =    0.3963604512  ZZ =   -0.7927209023
       XY =    0.0000000000  XZ =    0.0000000000  YZ =    0.0000000000
                             Z-matrix center   2:
  Atomic charge is                      7
       XX =   -0.0326786258  YY =   -0.0326786258  ZZ =    0.0653572516
       XY =    0.0000000000  XZ =    0.0000000000  YZ =    0.0000000000
                          In kHz, Mass number  14
                          CHIxx =      -156.94496
                          CHIyy =      -156.94496
                          CHIzz =       313.88992
                          CHIxy =         0.00000
                          CHIxz =         0.00000
                          CHIyz =         0.00000
                             Z-matrix center   4:
  Atomic charge is                      1
       XX =   -0.2161964834  YY =   -0.2161964834  ZZ =    0.4323929669
       XY =    0.0000000000  XZ =    0.0000000000  YZ =    0.0000000000
                          In kHz, Mass number   2
                          CHIxx =      -145.28385
                          CHIyy =      -145.28385
                          CHIzz =       290.56771
                          CHIxy =         0.00000
                          CHIxz =         0.00000
                          CHIyz =         0.00000
   Electrostatic potential at atomic centers 
          Z-matrix                             Potential
           center                               [<1/r>]
              1                            -14.7435923220
              2                            -18.3426614707
              4                             -0.9239833727
 
  Mulliken population analysis of SCF density.
   Total density is analyzed.
 
  Population analysis by orbitals.
 -------------------------------------------------------
     Z-matrix
      Center          Function          Population
 -------------------------------------------------------
         1                S              1.99944799
         1                S              1.73677349
         1                S             -0.00657108
         1                S              0.12340410
         1                P              0.63982939
         1                P             -0.02988607
         1                P             -0.07370946
         1                P              0.63982939
         1                P             -0.02988607
         1                P             -0.07370946
         1                P              1.35700365
         1                P             -0.13105118
         1                P             -0.14821443
         1                D              0.00256547
         1                D              0.00201381
         1                D              0.00000000
         1                D              0.00000000
         1                D              0.00970071
         1                D              0.03084324
         1                D              0.00256547
         1                D              0.00201381
         1                D              0.00970071
         1                D              0.03084324
         1                D              0.01026187
         1                D              0.00805525
         1                F              0.00055845
         1                F              0.00018615
         1                F              0.00070832
         1                F              0.00018615
         1                F              0.00000000
         1                F              0.00297838
         1                F              0.00055845
         1                F              0.00070832
         1                F              0.00297838
         1                F              0.00094442
         2                S              1.99773794
         2                S              1.60398826
         2                S             -0.00941342
         2                S             -0.22098387
         2                P              1.36551619
         2                P             -0.00910907
         2                P              0.03422074
         2                P              1.36551619
         2                P             -0.00910907
         2                P              0.03422074
         2                P              1.38869417
         2                P             -0.13523883
         2                P             -0.27281299
         2                D              0.00053097
         2                D              0.00132214
         2                D              0.00000000
         2                D              0.00000000
         2                D              0.00131208
         2                D              0.00693437
         2                D              0.00053097
         2                D              0.00132214
         2                D              0.00131208
         2                D              0.00693437
         2                D              0.00212389
         2                D              0.00528858
         2                F              0.00029445
         2                F              0.00009815
         2                F              0.00051359
         2                F              0.00009815
         2                F              0.00000000
         2                F              0.00157042
         2                F              0.00029445
         2                F              0.00051359
         2                F              0.00157042
         2                F              0.00068478
         4                S              1.23883468
         4                S             -0.26379102
         4                S             -0.32261222
         4                P              0.00203380
         4                P              0.01593714
         4                P              0.00203380
         4                P              0.01593714
         4                P              0.01201131
         4                P              0.00819537
         4                D              0.00032178
         4                D              0.00000000
         4                D              0.00069094
         4                D              0.00032178
         4                D              0.00069094
         4                D              0.00128713
 -------------------------------------------------------
  Population analysis by atoms (atomic charges).
 -------------------------------------------------------
     Z-matrix
      Center          Function          Population
 -------------------------------------------------------
         1                               6.12163085
         2                               7.16647658
         4                               0.71189257
 -------------------------------------------------------
 
  Mulliken population analysis of CCSD(T) density.
   Total density is analyzed.
 
  Population analysis by orbitals.
 -------------------------------------------------------
     Z-matrix
      Center          Function          Population
 -------------------------------------------------------
         1                S              1.99872622
         1                S              1.70742222
         1                S              0.00010887
         1                S              0.16279735
         1                P              0.72233384
         1                P             -0.03452708
         1                P             -0.08694839
         1                P              0.72233384
         1                P             -0.03452708
         1                P             -0.08694839
         1                P              1.30299077
         1                P             -0.14433018
         1                P             -0.14639421
         1                D              0.00353404
         1                D              0.00382527
         1                D              0.00144919
         1                D              0.00304417
         1                D              0.01086778
         1                D              0.02849643
         1                D              0.00353404
         1                D              0.00382527
         1                D              0.01086778
         1                D              0.02849643
         1                D              0.01123778
         1                D              0.00921274
         1                F              0.00053815
         1                F              0.00032188
         1                F              0.00106039
         1                F              0.00032188
         1                F              0.00045791
         1                F              0.00258512
         1                F              0.00053815
         1                F              0.00106039
         1                F              0.00258512
         1                F              0.00110858
         2                S              1.99697141
         2                S              1.60342376
         2                S              0.00037759
         2                S             -0.23580376
         2                P              1.35722729
         2                P             -0.02510382
         2                P              0.00332356
         2                P              1.35722729
         2                P             -0.02510382
         2                P              0.00332356
         2                P              1.38332362
         2                P             -0.14918347
         2                P             -0.27598614
         2                D              0.00183384
         2                D              0.00435651
         2                D              0.00188997
         2                D              0.00447226
         2                D              0.00334802
         2                D              0.00932618
         2                D              0.00183384
         2                D              0.00435651
         2                D              0.00334802
         2                D              0.00932618
         2                D              0.00355542
         2                D              0.00848151
         2                F              0.00046508
         2                F              0.00039183
         2                F              0.00093506
         2                F              0.00039183
         2                F              0.00050315
         2                F              0.00200682
         2                F              0.00046508
         2                F              0.00093506
         2                F              0.00200682
         2                F              0.00091131
         4                S              1.25565762
         4                S             -0.26813844
         4                S             -0.31756438
         4                P              0.00245039
         4                P              0.01674531
         4                P              0.00245039
         4                P              0.01674531
         4                P              0.01159186
         4                P              0.00522274
         4                D              0.00036061
         4                D              0.00009102
         4                D              0.00080148
         4                D              0.00036061
         4                D              0.00080148
         4                D              0.00126038
 -------------------------------------------------------
  Population analysis by atoms (atomic charges).
 -------------------------------------------------------
     Z-matrix
      Center          Function          Population
 -------------------------------------------------------
         1                               6.21200628
         2                               7.05915736
         4                               0.72883636
 -------------------------------------------------------
 @CHECKOUT-I, Total execution time (CPU/WALL):        0.03/       0.12 seconds.
--executable xprops finished with status     0 in        0.21 seconds (walltime).
  The final electronic energy is       -93.251418020570966 a.u. 
  This computation required                          163.41 seconds (walltime).

real	2m43.484s
user	0m44.917s
sys	0m30.849s
