 Entering Gaussian System, Link 0=/home/orgChemistry/bin/gaussian16-C.01/g16/g16
 Initial command:
 /home/orgChemistry/bin/gaussian16-C.01/g16/l1.exe "/scratch/agSchreiner/ruthm/139843/gaussian_iso2_CO.iso2_CO_b3lyp_6311_G_3df_3dp/Gau-93311.inp" -scrdir="/scratch/agSchreiner/ruthm/139843/gaussian_iso2_CO.iso2_CO_b3lyp_6311_G_3df_3dp/"
 Entering Link 1 = /home/orgChemistry/bin/gaussian16-C.01/g16/l1.exe PID=     93314.
  
 Copyright (c) 1988-2019, Gaussian, Inc.  All Rights Reserved.
  
 This is part of the Gaussian(R) 16 program.  It is based on
 the Gaussian(R) 09 system (copyright 2009, Gaussian, Inc.),
 the Gaussian(R) 03 system (copyright 2003, Gaussian, Inc.),
 the Gaussian(R) 98 system (copyright 1998, Gaussian, Inc.),
 the Gaussian(R) 94 system (copyright 1995, Gaussian, Inc.),
 the Gaussian 92(TM) system (copyright 1992, Gaussian, Inc.),
 the Gaussian 90(TM) system (copyright 1990, Gaussian, Inc.),
 the Gaussian 88(TM) system (copyright 1988, Gaussian, Inc.),
 the Gaussian 86(TM) system (copyright 1986, Carnegie Mellon
 University), and the Gaussian 82(TM) system (copyright 1983,
 Carnegie Mellon University). Gaussian is a federally registered
 trademark of Gaussian, Inc.
  
 This software contains proprietary and confidential information,
 including trade secrets, belonging to Gaussian, Inc.
  
 This software is provided under written license and may be
 used, copied, transmitted, or stored only in accord with that
 written license.
  
 The following legend is applicable only to US Government
 contracts under FAR:
  
                    RESTRICTED RIGHTS LEGEND
  
 Use, reproduction and disclosure by the US Government is
 subject to restrictions as set forth in subparagraphs (a)
 and (c) of the Commercial Computer Software - Restricted
 Rights clause in FAR 52.227-19.
  
 Gaussian, Inc.
 340 Quinnipiac St., Bldg. 40, Wallingford CT 06492
  
  
 ---------------------------------------------------------------
 Warning -- This program may not be used in any manner that
 competes with the business of Gaussian, Inc. or will provide
 assistance to any competitor of Gaussian, Inc.  The licensee
 of this program is prohibited from giving any competitor of
 Gaussian, Inc. access to this program.  By using this program,
 the user acknowledges that Gaussian, Inc. is engaged in the
 business of creating and licensing software in the field of
 computational chemistry and represents and warrants to the
 licensee that it is not a competitor of Gaussian, Inc. and that
 it will not use this program in any manner prohibited above.
 ---------------------------------------------------------------
  

 Cite this work as:
 Gaussian 16, Revision C.01,
 M. J. Frisch, G. W. Trucks, H. B. Schlegel, G. E. Scuseria, 
 M. A. Robb, J. R. Cheeseman, G. Scalmani, V. Barone, 
 G. A. Petersson, H. Nakatsuji, X. Li, M. Caricato, A. V. Marenich, 
 J. Bloino, B. G. Janesko, R. Gomperts, B. Mennucci, H. P. Hratchian, 
 J. V. Ortiz, A. F. Izmaylov, J. L. Sonnenberg, D. Williams-Young, 
 F. Ding, F. Lipparini, F. Egidi, J. Goings, B. Peng, A. Petrone, 
 T. Henderson, D. Ranasinghe, V. G. Zakrzewski, J. Gao, N. Rega, 
 G. Zheng, W. Liang, M. Hada, M. Ehara, K. Toyota, R. Fukuda, 
 J. Hasegawa, M. Ishida, T. Nakajima, Y. Honda, O. Kitao, H. Nakai, 
 T. Vreven, K. Throssell, J. A. Montgomery, Jr., J. E. Peralta, 
 F. Ogliaro, M. J. Bearpark, J. J. Heyd, E. N. Brothers, K. N. Kudin, 
 V. N. Staroverov, T. A. Keith, R. Kobayashi, J. Normand, 
 K. Raghavachari, A. P. Rendell, J. C. Burant, S. S. Iyengar, 
 J. Tomasi, M. Cossi, J. M. Millam, M. Klene, C. Adamo, R. Cammi, 
 J. W. Ochterski, R. L. Martin, K. Morokuma, O. Farkas, 
 J. B. Foresman, and D. J. Fox, Gaussian, Inc., Wallingford CT, 2019.
 
 ******************************************
 Gaussian 16:  ES64L-G16RevC.01  3-Jul-2019
                26-Jan-2021 
 ******************************************
 %Chk=file_name
 %NProcShared=24
 Will use up to   24 processors via shared memory.
 %mem=48000mb
 -------------------------------------------
 #p b3lyp/6-311++G(3df,3pd) opt freq=noraman
 -------------------------------------------
 1/18=20,19=15,26=3,38=1/1,3;
 2/9=110,12=2,17=6,18=5,40=1/2;
 3/5=4,6=6,7=1616,11=2,25=1,30=1,71=1,74=-5/1,2,3;
 4//1;
 5/5=2,38=5/2;
 6/7=2,8=2,9=2,10=2,28=1/1;
 7//1,2,3,16;
 1/18=20,19=15,26=3/3(2);
 2/9=110/2;
 99//99;
 2/9=110/2;
 3/5=4,6=6,7=1616,11=2,25=1,30=1,71=1,74=-5/1,2,3;
 4/5=5,16=3,69=1/1;
 5/5=2,38=5/2;
 7//1,2,3,16;
 1/18=20,19=15,26=3/3(-5);
 2/9=110/2;
 6/7=2,8=2,9=2,10=2,19=2,28=1/1;
 99/9=1/99;
 Leave Link    1 at Tue Jan 26 00:24:26 2021, MaxMem=  6291456000 cpu:               8.7 elap:               0.7
 (Enter /home/orgChemistry/bin/gaussian16-C.01/g16/l101.exe)
 -----
 title
 -----
 Symbolic Z-matrix:
 Charge =  0 Multiplicity = 1
 8                    -3.45791   1.8845   -0.01916 
 6                    -2.3521    2.7317    0.02802 
 
 ITRead=  0  0
 MicOpt= -1 -1
 NAtoms=      2 NQM=        2 NQMF=       0 NMMI=      0 NMMIF=      0
                NMic=       0 NMicF=      0.
                    Isotopes and Nuclear Properties:
 (Nuclear quadrupole moments (NQMom) in fm**2, nuclear magnetic moments (NMagM)
  in nuclear magnetons)

  Atom         1           2
 IAtWgt=          16          12
 AtmWgt=  15.9949146  12.0000000
 NucSpn=           0           0
 AtZEff=  -0.0000000  -0.0000000
 NQMom=    0.0000000   0.0000000
 NMagM=    0.0000000   0.0000000
 AtZNuc=   8.0000000   6.0000000
 Leave Link  101 at Tue Jan 26 00:24:29 2021, MaxMem=  6291456000 cpu:               7.8 elap:               0.4
 (Enter /home/orgChemistry/bin/gaussian16-C.01/g16/l103.exe)

 GradGradGradGradGradGradGradGradGradGradGradGradGradGradGradGradGradGrad
 Berny optimization.
 Initialization pass.
                           ----------------------------
                           !    Initial Parameters    !
                           ! (Angstroms and Degrees)  !
 --------------------------                            --------------------------
 ! Name  Definition              Value          Derivative Info.                !
 --------------------------------------------------------------------------------
 ! R1    R(1,2)                  1.3938         estimate D2E/DX2                !
 --------------------------------------------------------------------------------
 Trust Radius=3.00D-01 FncErr=1.00D-07 GrdErr=1.00D-06 EigMax=2.50D+02 EigMin=1.00D-04
 Number of steps in this run=     20 maximum allowed number of steps=    100.
 GradGradGradGradGradGradGradGradGradGradGradGradGradGradGradGradGradGrad

 Leave Link  103 at Tue Jan 26 00:24:29 2021, MaxMem=  6291456000 cpu:               0.6 elap:               0.1
 (Enter /home/orgChemistry/bin/gaussian16-C.01/g16/l202.exe)
                          Input orientation:                          
 ---------------------------------------------------------------------
 Center     Atomic      Atomic             Coordinates (Angstroms)
 Number     Number       Type             X           Y           Z
 ---------------------------------------------------------------------
      1          8           0       -3.457913    1.884496   -0.019164
      2          6           0       -2.352098    2.731697    0.028018
 ---------------------------------------------------------------------
 Stoichiometry    CO
 Framework group  C*V[C*(CO)]
 Deg. of freedom     1
 Full point group                 C*V     NOp   4
 Largest Abelian subgroup         C2V     NOp   4
 Largest concise Abelian subgroup C1      NOp   1
                         Standard orientation:                         
 ---------------------------------------------------------------------
 Center     Atomic      Atomic             Coordinates (Angstroms)
 Number     Number       Type             X           Y           Z
 ---------------------------------------------------------------------
      1          8           0       -0.000000    0.000000    0.597362
      2          6           0        0.000000   -0.000000   -0.796483
 ---------------------------------------------------------------------
 Rotational constants (GHZ):           0.0000000          37.9406099          37.9406099
 Leave Link  202 at Tue Jan 26 00:24:30 2021, MaxMem=  6291456000 cpu:               0.3 elap:               0.0
 (Enter /home/orgChemistry/bin/gaussian16-C.01/g16/l301.exe)
 Standard basis: 6-311++G(3df,3pd) (5D, 7F)
 Ernie: Thresh=  0.10000D-02 Tol=  0.10000D-05 Strict=F.
 There are    42 symmetry adapted cartesian basis functions of A1  symmetry.
 There are     8 symmetry adapted cartesian basis functions of A2  symmetry.
 There are    20 symmetry adapted cartesian basis functions of B1  symmetry.
 There are    20 symmetry adapted cartesian basis functions of B2  symmetry.
 There are    34 symmetry adapted basis functions of A1  symmetry.
 There are     8 symmetry adapted basis functions of A2  symmetry.
 There are    18 symmetry adapted basis functions of B1  symmetry.
 There are    18 symmetry adapted basis functions of B2  symmetry.
    78 basis functions,   116 primitive gaussians,    90 cartesian basis functions
     7 alpha electrons        7 beta electrons
       nuclear repulsion energy        18.2233382798 Hartrees.
 IExCor=  402 DFT=T Ex+Corr=B3LYP ExCW=0 ScaHFX=  0.200000
 ScaDFX=  0.800000  0.720000  1.000000  0.810000 ScalE2=  1.000000  1.000000
 IRadAn=      5 IRanWt=     -1 IRanGd=            0 ICorTp=0 IEmpDi=  4
 NAtoms=    2 NActive=    2 NUniq=    2 SFac= 1.00D+00 NAtFMM=   60 NAOKFM=F Big=F
 Integral buffers will be    131072 words long.
 Raffenetti 2 integral format.
 Two-electron integral symmetry is turned on.
 Leave Link  301 at Tue Jan 26 00:24:30 2021, MaxMem=  6291456000 cpu:               1.4 elap:               0.1
 (Enter /home/orgChemistry/bin/gaussian16-C.01/g16/l302.exe)
 NPDir=0 NMtPBC=     1 NCelOv=     1 NCel=       1 NClECP=     1 NCelD=      1
         NCelK=      1 NCelE2=     1 NClLst=     1 CellRange=     0.0.
 One-electron integrals computed using PRISM.
 One-electron integral symmetry used in STVInt
 NBasis=    78 RedAO= T EigKep=  1.40D-03  NBF=    34     8    18    18
 NBsUse=    78 1.00D-06 EigRej= -1.00D+00 NBFU=    34     8    18    18
 Precomputing XC quadrature grid using
 IXCGrd= 4 IRadAn=           5 IRanWt=          -1 IRanGd=           0 AccXCQ= 0.00D+00.
 Generated NRdTot=       0 NPtTot=           0 NUsed=           0 NTot=          32
 NSgBfM=    90    90    90    90    90 MxSgAt=     2 MxSgA2=     2.
 Leave Link  302 at Tue Jan 26 00:24:30 2021, MaxMem=  6291456000 cpu:               4.1 elap:               0.2
 (Enter /home/orgChemistry/bin/gaussian16-C.01/g16/l303.exe)
 DipDrv:  MaxL=1.
 Leave Link  303 at Tue Jan 26 00:24:30 2021, MaxMem=  6291456000 cpu:               0.5 elap:               0.1
 (Enter /home/orgChemistry/bin/gaussian16-C.01/g16/l401.exe)
 ExpMin= 4.38D-02 ExpMax= 8.59D+03 ExpMxC= 1.30D+03 IAcc=3 IRadAn=         5 AccDes= 0.00D+00
 Harris functional with IExCor=  402 and IRadAn=       5 diagonalized for initial guess.
 HarFok:  IExCor=  402 AccDes= 0.00D+00 IRadAn=         5 IDoV= 1 UseB2=F ITyADJ=14
 ICtDFT=  3500011 ScaDFX=  1.000000  1.000000  1.000000  1.000000
 FoFCou: FMM=F IPFlag=           0 FMFlag=      100000 FMFlg1=           0
         NFxFlg=           0 DoJE=T BraDBF=F KetDBF=T FulRan=T
         wScrn=  0.000000 ICntrl=       500 IOpCl=  0 I1Cent=   200000004 NGrid=           0
         NMat0=    1 NMatS0=      1 NMatT0=    0 NMatD0=    1 NMtDS0=    0 NMtDT0=    0
 Petite list used in FoFCou.
 Harris En= -113.272631981999    
 JPrj=0 DoOrth=F DoCkMO=F.
 Initial guess orbital symmetries:
       Occupied  (SG) (SG) (SG) (SG) (PI) (PI) (SG)
       Virtual   (PI) (PI) (SG) (SG) (PI) (PI) (SG) (SG) (PI) (PI)
                 (SG) (DLTA) (DLTA) (PI) (PI) (SG) (SG) (PI) (PI)
                 (SG) (DLTA) (DLTA) (PI) (PI) (SG) (PI) (PI) (SG)
                 (DLTA) (DLTA) (PI) (PI) (SG) (SG) (PI) (PI) (PHI)
                 (PHI) (DLTA) (DLTA) (PI) (PI) (SG) (SG) (DLTA)
                 (DLTA) (PI) (PI) (SG) (PI) (PI) (PHI) (PHI) (DLTA)
                 (DLTA) (SG) (PI) (PI) (SG) (DLTA) (DLTA) (PI)
                 (PI) (SG) (DLTA) (DLTA) (PI) (PI) (SG) (SG) (SG)
 The electronic state of the initial guess is 1-SG.
 Leave Link  401 at Tue Jan 26 00:24:31 2021, MaxMem=  6291456000 cpu:               3.9 elap:               0.2
 (Enter /home/orgChemistry/bin/gaussian16-C.01/g16/l502.exe)
 Keep R1 ints in memory in symmetry-blocked form, NReq=26693331.
 FoFCou: FMM=F IPFlag=           0 FMFlag=           0 FMFlg1=           0
         NFxFlg=           0 DoJE=F BraDBF=F KetDBF=F FulRan=T
         wScrn=  0.000000 ICntrl=       600 IOpCl=  0 I1Cent=           0 NGrid=           0
         NMat0=    1 NMatS0=   3081 NMatT0=    0 NMatD0=    1 NMtDS0=    0 NMtDT0=    0
 Petite list used in FoFCou.
 Closed shell SCF:
 Using DIIS extrapolation, IDIIS=  1040.
 NGot=  6291456000 LenX=  6290203231 LenY=  6290194690
 Requested convergence on RMS density matrix=1.00D-08 within 128 cycles.
 Requested convergence on MAX density matrix=1.00D-06.
 Requested convergence on             energy=1.00D-06.
 No special actions if energy rises.

 Cycle   1  Pass 1  IDiag  1:
 E= -113.195993959966    
 DIIS: error= 4.73D-02 at cycle   1 NSaved=   1.
 NSaved= 1 IEnMin= 1 EnMin= -113.195993959966     IErMin= 1 ErrMin= 4.73D-02
 ErrMax= 4.73D-02  0.00D+00 EMaxC= 1.00D-01 BMatC= 8.87D-02 BMatP= 8.87D-02
 IDIUse=3 WtCom= 5.27D-01 WtEn= 4.73D-01
 Coeff-Com:  0.100D+01
 Coeff-En:   0.100D+01
 Coeff:      0.100D+01
 Gap=     0.134 Goal=   None    Shift=    0.000
 GapD=    0.134 DampG=1.000 DampE=0.500 DampFc=0.5000 IDamp=-1.
 Damping current iteration by 5.00D-01
 RMSDP=7.50D-03 MaxDP=1.15D-01              OVMax= 4.95D-01

 Cycle   2  Pass 1  IDiag  1:
 E= -112.945875731226     Delta-E=        0.250118228740 Rises=F Damp=T
 DIIS: error= 9.38D-02 at cycle   2 NSaved=   2.
 NSaved= 2 IEnMin= 1 EnMin= -113.195993959966     IErMin= 1 ErrMin= 4.73D-02
 ErrMax= 9.38D-02  0.00D+00 EMaxC= 1.00D-01 BMatC= 2.44D-01 BMatP= 8.87D-02
 IDIUse=2 WtCom= 0.00D+00 WtEn= 1.00D+00
 Coeff-En:   0.791D+00 0.209D+00
 Coeff:      0.791D+00 0.209D+00
 Gap=     0.221 Goal=   None    Shift=    0.000
 RMSDP=9.29D-04 MaxDP=1.26D-02 DE= 2.50D-01 OVMax= 2.67D-01

 Cycle   3  Pass 1  IDiag  1:
 E= -113.069332063596     Delta-E=       -0.123456332370 Rises=F Damp=F
 DIIS: error= 9.65D-02 at cycle   3 NSaved=   3.
 NSaved= 3 IEnMin= 1 EnMin= -113.195993959966     IErMin= 1 ErrMin= 4.73D-02
 ErrMax= 9.65D-02  0.00D+00 EMaxC= 1.00D-01 BMatC= 2.58D-01 BMatP= 8.87D-02
 IDIUse=2 WtCom= 0.00D+00 WtEn= 1.00D+00
 Coeff-En:   0.662D+00 0.000D+00 0.338D+00
 Coeff:      0.662D+00 0.000D+00 0.338D+00
 Gap=     0.273 Goal=   None    Shift=    0.000
 RMSDP=1.92D-03 MaxDP=3.19D-02 DE=-1.23D-01 OVMax= 1.30D-01

 Cycle   4  Pass 1  IDiag  1:
 E= -113.259154150239     Delta-E=       -0.189822086643 Rises=F Damp=F
 DIIS: error= 1.46D-02 at cycle   4 NSaved=   4.
 NSaved= 4 IEnMin= 4 EnMin= -113.259154150239     IErMin= 4 ErrMin= 1.46D-02
 ErrMax= 1.46D-02  0.00D+00 EMaxC= 1.00D-01 BMatC= 7.13D-03 BMatP= 8.87D-02
 IDIUse=3 WtCom= 8.54D-01 WtEn= 1.46D-01
 Coeff-Com:  0.105D+00 0.270D-01-0.131D+00 0.999D+00
 Coeff-En:   0.131D+00 0.000D+00 0.000D+00 0.869D+00
 Coeff:      0.109D+00 0.231D-01-0.112D+00 0.980D+00
 Gap=     0.280 Goal=   None    Shift=    0.000
 RMSDP=4.87D-04 MaxDP=8.38D-03 DE=-1.90D-01 OVMax= 3.09D-02

 Cycle   5  Pass 1  IDiag  1:
 E= -113.264169581080     Delta-E=       -0.005015430841 Rises=F Damp=F
 DIIS: error= 3.15D-03 at cycle   5 NSaved=   5.
 NSaved= 5 IEnMin= 5 EnMin= -113.264169581080     IErMin= 5 ErrMin= 3.15D-03
 ErrMax= 3.15D-03  0.00D+00 EMaxC= 1.00D-01 BMatC= 3.34D-04 BMatP= 7.13D-03
 IDIUse=3 WtCom= 9.68D-01 WtEn= 3.15D-02
 Coeff-Com: -0.571D-02 0.129D-02-0.154D-02 0.164D+00 0.842D+00
 Coeff-En:   0.000D+00 0.000D+00 0.000D+00 0.930D-01 0.907D+00
 Coeff:     -0.553D-02 0.125D-02-0.150D-02 0.162D+00 0.844D+00
 Gap=     0.279 Goal=   None    Shift=    0.000
 RMSDP=9.18D-05 MaxDP=1.55D-03 DE=-5.02D-03 OVMax= 5.96D-03

 Cycle   6  Pass 1  IDiag  1:
 E= -113.264419057702     Delta-E=       -0.000249476622 Rises=F Damp=F
 DIIS: error= 2.30D-04 at cycle   6 NSaved=   6.
 NSaved= 6 IEnMin= 6 EnMin= -113.264419057702     IErMin= 6 ErrMin= 2.30D-04
 ErrMax= 2.30D-04  0.00D+00 EMaxC= 1.00D-01 BMatC= 1.89D-06 BMatP= 3.34D-04
 IDIUse=3 WtCom= 9.98D-01 WtEn= 2.30D-03
 Coeff-Com: -0.135D-02 0.867D-03-0.267D-02 0.530D-01 0.264D+00 0.686D+00
 Coeff-En:   0.000D+00 0.000D+00 0.000D+00 0.000D+00 0.000D+00 0.100D+01
 Coeff:     -0.134D-02 0.865D-03-0.266D-02 0.529D-01 0.264D+00 0.687D+00
 Gap=     0.279 Goal=   None    Shift=    0.000
 RMSDP=7.07D-06 MaxDP=1.61D-04 DE=-2.49D-04 OVMax= 4.15D-04

 Cycle   7  Pass 1  IDiag  1:
 E= -113.264420454885     Delta-E=       -0.000001397183 Rises=F Damp=F
 DIIS: error= 1.17D-05 at cycle   7 NSaved=   7.
 NSaved= 7 IEnMin= 7 EnMin= -113.264420454885     IErMin= 7 ErrMin= 1.17D-05
 ErrMax= 1.17D-05  0.00D+00 EMaxC= 1.00D-01 BMatC= 6.87D-09 BMatP= 1.89D-06
 IDIUse=1 WtCom= 1.00D+00 WtEn= 0.00D+00
 Coeff-Com: -0.959D-04-0.125D-03-0.128D-03 0.292D-02 0.168D-01 0.142D+00
 Coeff-Com:  0.838D+00
 Coeff:     -0.959D-04-0.125D-03-0.128D-03 0.292D-02 0.168D-01 0.142D+00
 Coeff:      0.838D+00
 Gap=     0.279 Goal=   None    Shift=    0.000
 RMSDP=6.34D-07 MaxDP=2.06D-05 DE=-1.40D-06 OVMax= 2.36D-05

 Cycle   8  Pass 1  IDiag  1:
 E= -113.264420459904     Delta-E=       -0.000000005019 Rises=F Damp=F
 DIIS: error= 8.80D-07 at cycle   8 NSaved=   8.
 NSaved= 8 IEnMin= 8 EnMin= -113.264420459904     IErMin= 8 ErrMin= 8.80D-07
 ErrMax= 8.80D-07  0.00D+00 EMaxC= 1.00D-01 BMatC= 6.04D-11 BMatP= 6.87D-09
 IDIUse=1 WtCom= 1.00D+00 WtEn= 0.00D+00
 Coeff-Com:  0.138D-04-0.783D-05-0.213D-04-0.221D-03-0.206D-02-0.540D-03
 Coeff-Com:  0.807D-01 0.922D+00
 Coeff:      0.138D-04-0.783D-05-0.213D-04-0.221D-03-0.206D-02-0.540D-03
 Coeff:      0.807D-01 0.922D+00
 Gap=     0.279 Goal=   None    Shift=    0.000
 RMSDP=5.32D-08 MaxDP=1.15D-06 DE=-5.02D-09 OVMax= 2.44D-06

 Cycle   9  Pass 1  IDiag  1:
 E= -113.264420459941     Delta-E=       -0.000000000038 Rises=F Damp=F
 DIIS: error= 3.39D-07 at cycle   9 NSaved=   9.
 NSaved= 9 IEnMin= 9 EnMin= -113.264420459941     IErMin= 9 ErrMin= 3.39D-07
 ErrMax= 3.39D-07  0.00D+00 EMaxC= 1.00D-01 BMatC= 3.38D-12 BMatP= 6.04D-11
 IDIUse=1 WtCom= 1.00D+00 WtEn= 0.00D+00
 Coeff-Com: -0.247D-05 0.547D-05-0.487D-05-0.205D-04-0.206D-03-0.101D-02
 Coeff-Com:  0.149D-02 0.415D-01 0.958D+00
 Coeff:     -0.247D-05 0.547D-05-0.487D-05-0.205D-04-0.206D-03-0.101D-02
 Coeff:      0.149D-02 0.415D-01 0.958D+00
 Gap=     0.279 Goal=   None    Shift=    0.000
 RMSDP=7.37D-09 MaxDP=1.99D-07 DE=-3.75D-11 OVMax= 3.20D-07

 SCF Done:  E(RB3LYP) =  -113.264420460     A.U. after    9 cycles
            NFock=  9  Conv=0.74D-08     -V/T= 2.0094
 KE= 1.122121504619D+02 PE=-3.022798316233D+02 EE= 5.857992242168D+01
 Leave Link  502 at Tue Jan 26 00:24:31 2021, MaxMem=  6291456000 cpu:              11.0 elap:               0.5
 (Enter /home/orgChemistry/bin/gaussian16-C.01/g16/l601.exe)
 Copying SCF densities to generalized density rwf, IOpCl= 0 IROHF=0.

 **********************************************************************

            Population analysis using the SCF Density.

 **********************************************************************

 Orbital symmetries:
       Occupied  (SG) (SG) (SG) (SG) (PI) (PI) (SG)
       Virtual   (PI) (PI) (SG) (SG) (PI) (PI) (SG) (SG) (PI) (PI)
                 (SG) (DLTA) (DLTA) (PI) (PI) (SG) (SG) (PI) (PI)
                 (SG) (DLTA) (DLTA) (PI) (PI) (SG) (PI) (PI) (SG)
                 (DLTA) (DLTA) (PI) (PI) (SG) (SG) (PI) (PI) (PHI)
                 (PHI) (DLTA) (DLTA) (PI) (PI) (SG) (SG) (DLTA)
                 (DLTA) (PI) (PI) (SG) (PI) (PI) (PHI) (PHI) (DLTA)
                 (DLTA) (SG) (PI) (PI) (SG) (DLTA) (DLTA) (PI)
                 (PI) (SG) (DLTA) (DLTA) (PI) (PI) (SG) (SG) (SG)
 The electronic state is 1-SG.
 Alpha  occ. eigenvalues --  -19.23931 -10.37326  -1.04372  -0.58944  -0.41099
 Alpha  occ. eigenvalues --   -0.41099  -0.40073
 Alpha virt. eigenvalues --   -0.12127  -0.12127   0.02434   0.04487   0.06579
 Alpha virt. eigenvalues --    0.06579   0.17211   0.18744   0.20047   0.20047
 Alpha virt. eigenvalues --    0.27504   0.31508   0.31508   0.43024   0.43024
 Alpha virt. eigenvalues --    0.50374   0.51736   0.52560   0.52560   0.80097
 Alpha virt. eigenvalues --    0.82460   0.82460   0.96251   0.96251   1.04798
 Alpha virt. eigenvalues --    1.11741   1.11741   1.28389   1.52251   1.52251
 Alpha virt. eigenvalues --    1.71468   1.71468   1.76942   1.95904   2.61439
 Alpha virt. eigenvalues --    2.61439   2.74806   2.74806   2.79727   2.79727
 Alpha virt. eigenvalues --    2.87047   2.87047   2.99657   3.14560   3.32785
 Alpha virt. eigenvalues --    3.32785   3.71745   3.71745   4.10243   4.96686
 Alpha virt. eigenvalues --    4.96686   4.97474   4.97474   5.13094   5.13094
 Alpha virt. eigenvalues --    5.34986   5.72988   5.72988   6.14492   6.84025
 Alpha virt. eigenvalues --    6.84025   7.12753   7.12753   7.42396  14.18091
 Alpha virt. eigenvalues --   14.18091  14.34925  14.34925  14.67959  23.70741
 Alpha virt. eigenvalues --   49.92957
          Condensed to atoms (all electrons):
               1          2
     1  O    8.013926   0.264693
     2  C    0.264693   5.456688
 Mulliken charges:
               1
     1  O   -0.278619
     2  C    0.278619
 Sum of Mulliken charges =  -0.00000
 Mulliken charges with hydrogens summed into heavy atoms:
               1
     1  O   -0.278619
     2  C    0.278619
 Electronic spatial extent (au):  <R**2>=             48.9463
 Charge=             -0.0000 electrons
 Dipole moment (field-independent basis, Debye):
    X=              0.0000    Y=             -0.0000    Z=             -0.8921  Tot=              0.8921
 Quadrupole moment (field-independent basis, Debye-Ang):
   XX=            -10.8699   YY=            -10.8699   ZZ=            -12.1003
   XY=              0.0000   XZ=              0.0000   YZ=             -0.0000
 Traceless Quadrupole moment (field-independent basis, Debye-Ang):
   XX=              0.4101   YY=              0.4101   ZZ=             -0.8203
   XY=              0.0000   XZ=              0.0000   YZ=             -0.0000
 Octapole moment (field-independent basis, Debye-Ang**2):
  XXX=             -0.0000  YYY=              0.0000  ZZZ=              6.0889  XYY=             -0.0000
  XXY=              0.0000  XXZ=              1.0272  XZZ=             -0.0000  YZZ=              0.0000
  YYZ=              1.0272  XYZ=              0.0000
 Hexadecapole moment (field-independent basis, Debye-Ang**3):
 XXXX=            -10.6667 YYYY=            -10.6667 ZZZZ=            -48.9452 XXXY=              0.0000
 XXXZ=              0.0000 YYYX=              0.0000 YYYZ=             -0.0000 ZZZX=              0.0000
 ZZZY=             -0.0000 XXYY=             -3.5556 XXZZ=             -9.2090 YYZZ=             -9.2090
 XXYZ=             -0.0000 YYXZ=              0.0000 ZZXY=              0.0000
 N-N= 1.822333827983D+01 E-N=-3.022798326682D+02  KE= 1.122121504619D+02
 Symmetry A1   KE= 1.041575701069D+02
 Symmetry A2   KE= 5.690246165211D-31
 Symmetry B1   KE= 4.027290177489D+00
 Symmetry B2   KE= 4.027290177489D+00
 No NMR shielding tensors so no spin-rotation constants.
 Leave Link  601 at Tue Jan 26 00:24:34 2021, MaxMem=  6291456000 cpu:               9.0 elap:               0.7
 (Enter /home/orgChemistry/bin/gaussian16-C.01/g16/l701.exe)
 ... and contract with generalized density number  0.
 Compute integral first derivatives.
 Leave Link  701 at Tue Jan 26 00:24:34 2021, MaxMem=  6291456000 cpu:               5.0 elap:               0.2
 (Enter /home/orgChemistry/bin/gaussian16-C.01/g16/l702.exe)
 L702 exits ... SP integral derivatives will be done elsewhere.
 Leave Link  702 at Tue Jan 26 00:24:35 2021, MaxMem=  6291456000 cpu:               0.8 elap:               0.1
 (Enter /home/orgChemistry/bin/gaussian16-C.01/g16/l703.exe)
 Integral derivatives from FoFJK, PRISM(SPDF).
 Compute integral first derivatives, UseDBF=F ICtDFT=           0.
 Calling FoFJK, ICntrl=      2127 FMM=F ISym2X=1 I1Cent= 0 IOpClX= 0 NMat=1 NMatS=1 NMatT=0.
 FoFJK:  IHMeth= 1 ICntrl=    2127 DoSepK=F KAlg= 0 I1Cent=           0 FoldK=F
 IRaf=         0 NMat=       1 IRICut=       1 DoRegI=T DoRafI=F ISym2E= 1 IDoP0=0 IntGTp=1.
 FoFCou: FMM=F IPFlag=           0 FMFlag=      100000 FMFlg1=         800
         NFxFlg=           0 DoJE=F BraDBF=F KetDBF=F FulRan=T
         wScrn=  0.000000 ICntrl=      2127 IOpCl=  0 I1Cent=           0 NGrid=           0
         NMat0=    1 NMatS0=      1 NMatT0=    0 NMatD0=    1 NMtDS0=    0 NMtDT0=    0
 Petite list used in FoFCou.
 Leave Link  703 at Tue Jan 26 00:24:35 2021, MaxMem=  6291456000 cpu:               7.9 elap:               0.4
 (Enter /home/orgChemistry/bin/gaussian16-C.01/g16/l716.exe)
 Dipole        = 6.44530766D-17-1.26461458D-16-3.50965850D-01
 ***** Axes restored to original set *****
 -------------------------------------------------------------------
 Center     Atomic                   Forces (Hartrees/Bohr)
 Number     Number              X              Y              Z
 -------------------------------------------------------------------
      1        8           0.210726473    0.161444456    0.008991001
      2        6          -0.210726473   -0.161444456   -0.008991001
 -------------------------------------------------------------------
 Cartesian Forces:  Max     0.210726473 RMS     0.153352314
 Leave Link  716 at Tue Jan 26 00:24:35 2021, MaxMem=  6291456000 cpu:               1.0 elap:               0.1
 (Enter /home/orgChemistry/bin/gaussian16-C.01/g16/l103.exe)

 GradGradGradGradGradGradGradGradGradGradGradGradGradGradGradGradGradGrad
 Berny optimization.
 FormGI is forming the generalized inverse of G from B-inverse, IUseBI=4.
 Internal  Forces:  Max     0.265614000 RMS     0.265614000
 Search for a local minimum.
 Step number   1 out of a maximum of   20
 All quantities printed in internal units (Hartrees-Bohrs-Radians)
 RMS Force = .26561D+00 SwitMx=.10000D-02 MixMth= 1
 Mixed Optimization -- RFO/linear search
 Second derivative matrix not updated -- first step.
 The second derivative matrix:
                          R1
           R1           0.46656
 ITU=  0
     Eigenvalues ---    0.46656
 RFO step:  Lambda=-1.20231475D-01 EMin= 4.66559935D-01
 Linear search not attempted -- first point.
 Maximum step size (   0.300) exceeded in Quadratic search.
    -- Step size scaled by   0.663
 Iteration  1 RMS(Cart)=  0.14142136 RMS(Int)=  0.10000000
 Iteration  2 RMS(Cart)=  0.07071068 RMS(Int)=  0.00000000
 Iteration  3 RMS(Cart)=  0.00000000 RMS(Int)=  0.00000000
 ITry= 1 IFail=0 DXMaxC= 1.19D-01 DCOld= 1.00D+10 DXMaxT= 3.00D-01 DXLimC= 3.00D+00 Rises=F
 ClnCor:  largest displacement from symmetrization is 6.94D-17 for atom     2.
 Variable       Old X    -DE/DX   Delta X   Delta X   Delta X     New X
                                 (Linear)    (Quad)   (Total)
    R1        2.63399  -0.26561   0.00000  -0.30000  -0.30000   2.33399
         Item               Value     Threshold  Converged?
 Maximum Force            0.265614     0.000450     NO 
 RMS     Force            0.265614     0.000300     NO 
 Maximum Displacement     0.119003     0.001800     NO 
 RMS     Displacement     0.212132     0.001200     NO 
 Predicted change in Energy=-5.868900D-02
 Lowest energy point so far.  Saving SCF results.
 GradGradGradGradGradGradGradGradGradGradGradGradGradGradGradGradGradGrad

 Leave Link  103 at Tue Jan 26 00:24:36 2021, MaxMem=  6291456000 cpu:               4.5 elap:               0.2
 (Enter /home/orgChemistry/bin/gaussian16-C.01/g16/l202.exe)
                          Input orientation:                          
 ---------------------------------------------------------------------
 Center     Atomic      Atomic             Coordinates (Angstroms)
 Number     Number       Type             X           Y           Z
 ---------------------------------------------------------------------
      1          8           0       -3.394939    1.932742   -0.016477
      2          6           0       -2.415072    2.683451    0.025331
 ---------------------------------------------------------------------
 Stoichiometry    CO
 Framework group  C*V[C*(CO)]
 Deg. of freedom     1
 Full point group                 C*V     NOp   4
 RotChk:  IX=0 Diff= 7.04D-16
 Largest Abelian subgroup         C2V     NOp   4
 Largest concise Abelian subgroup C1      NOp   1
                         Standard orientation:                         
 ---------------------------------------------------------------------
 Center     Atomic      Atomic             Coordinates (Angstroms)
 Number     Number       Type             X           Y           Z
 ---------------------------------------------------------------------
      1          8           0       -0.000000   -0.000000    0.529325
      2          6           0        0.000000    0.000000   -0.705767
 ---------------------------------------------------------------------
 Rotational constants (GHZ):           0.0000000          48.3208740          48.3208740
 Leave Link  202 at Tue Jan 26 00:24:36 2021, MaxMem=  6291456000 cpu:               1.0 elap:               0.1
 (Enter /home/orgChemistry/bin/gaussian16-C.01/g16/l301.exe)
 Standard basis: 6-311++G(3df,3pd) (5D, 7F)
 Ernie: Thresh=  0.10000D-02 Tol=  0.10000D-05 Strict=F.
 There are    42 symmetry adapted cartesian basis functions of A1  symmetry.
 There are     8 symmetry adapted cartesian basis functions of A2  symmetry.
 There are    20 symmetry adapted cartesian basis functions of B1  symmetry.
 There are    20 symmetry adapted cartesian basis functions of B2  symmetry.
 There are    34 symmetry adapted basis functions of A1  symmetry.
 There are     8 symmetry adapted basis functions of A2  symmetry.
 There are    18 symmetry adapted basis functions of B1  symmetry.
 There are    18 symmetry adapted basis functions of B2  symmetry.
    78 basis functions,   116 primitive gaussians,    90 cartesian basis functions
     7 alpha electrons        7 beta electrons
       nuclear repulsion energy        20.5656847142 Hartrees.
 IExCor=  402 DFT=T Ex+Corr=B3LYP ExCW=0 ScaHFX=  0.200000
 ScaDFX=  0.800000  0.720000  1.000000  0.810000 ScalE2=  1.000000  1.000000
 IRadAn=      5 IRanWt=     -1 IRanGd=            0 ICorTp=0 IEmpDi=  4
 NAtoms=    2 NActive=    2 NUniq=    2 SFac= 1.00D+00 NAtFMM=   60 NAOKFM=F Big=F
 Integral buffers will be    131072 words long.
 Raffenetti 2 integral format.
 Two-electron integral symmetry is turned on.
 Leave Link  301 at Tue Jan 26 00:24:36 2021, MaxMem=  6291456000 cpu:               1.6 elap:               0.1
 (Enter /home/orgChemistry/bin/gaussian16-C.01/g16/l302.exe)
 NPDir=0 NMtPBC=     1 NCelOv=     1 NCel=       1 NClECP=     1 NCelD=      1
         NCelK=      1 NCelE2=     1 NClLst=     1 CellRange=     0.0.
 One-electron integrals computed using PRISM.
 One-electron integral symmetry used in STVInt
 NBasis=    78 RedAO= T EigKep=  9.26D-04  NBF=    34     8    18    18
 NBsUse=    78 1.00D-06 EigRej= -1.00D+00 NBFU=    34     8    18    18
 Precomputing XC quadrature grid using
 IXCGrd= 4 IRadAn=           5 IRanWt=          -1 IRanGd=           0 AccXCQ= 0.00D+00.
 Generated NRdTot=       0 NPtTot=           0 NUsed=           0 NTot=          32
 NSgBfM=    90    90    90    90    90 MxSgAt=     2 MxSgA2=     2.
 Leave Link  302 at Tue Jan 26 00:24:36 2021, MaxMem=  6291456000 cpu:               6.5 elap:               0.3
 (Enter /home/orgChemistry/bin/gaussian16-C.01/g16/l303.exe)
 DipDrv:  MaxL=1.
 Leave Link  303 at Tue Jan 26 00:24:36 2021, MaxMem=  6291456000 cpu:               1.3 elap:               0.1
 (Enter /home/orgChemistry/bin/gaussian16-C.01/g16/l401.exe)
 Initial guess from the checkpoint file:  "file_name.chk"
 B after Tr=    -0.000000    0.000000    0.000000
         Rot=    1.000000   -0.000000    0.000000    0.000000 Ang=   0.00 deg.
 Guess basis will be translated and rotated to current coordinates.
 JPrj=2 DoOrth=T DoCkMO=T.
 Initial guess orbital symmetries:
       Occupied  (SG) (SG) (SG) (SG) (PI) (PI) (SG)
       Virtual   (PI) (PI) (SG) (SG) (PI) (PI) (SG) (SG) (PI) (PI)
                 (SG) (DLTA) (DLTA) (PI) (PI) (SG) (SG) (PI) (PI)
                 (SG) (DLTA) (DLTA) (PI) (PI) (SG) (PI) (PI) (SG)
                 (DLTA) (DLTA) (PI) (PI) (SG) (SG) (PI) (PI) (PHI)
                 (PHI) (DLTA) (DLTA) (PI) (PI) (SG) (SG) (DLTA)
                 (DLTA) (PI) (PI) (SG) (PI) (PI) (PHI) (PHI) (DLTA)
                 (DLTA) (SG) (PI) (PI) (SG) (DLTA) (DLTA) (PI)
                 (PI) (SG) (DLTA) (DLTA) (PI) (PI) (SG) (SG) (SG)
 The electronic state of the initial guess is 1-SG.
 Generating alternative initial guess.
 ExpMin= 4.38D-02 ExpMax= 8.59D+03 ExpMxC= 1.30D+03 IAcc=3 IRadAn=         5 AccDes= 0.00D+00
 Harris functional with IExCor=  402 and IRadAn=       5 diagonalized for initial guess.
 HarFok:  IExCor=  402 AccDes= 0.00D+00 IRadAn=         5 IDoV= 1 UseB2=F ITyADJ=14
 ICtDFT=  3500011 ScaDFX=  1.000000  1.000000  1.000000  1.000000
 FoFCou: FMM=F IPFlag=           0 FMFlag=      100000 FMFlg1=           0
         NFxFlg=           0 DoJE=T BraDBF=F KetDBF=T FulRan=T
         wScrn=  0.000000 ICntrl=       500 IOpCl=  0 I1Cent=   200000004 NGrid=           0
         NMat0=    1 NMatS0=      1 NMatT0=    0 NMatD0=    1 NMtDS0=    0 NMtDT0=    0
 Petite list used in FoFCou.
 Harris En= -113.328487365416    
 Leave Link  401 at Tue Jan 26 00:24:36 2021, MaxMem=  6291456000 cpu:               6.2 elap:               0.3
 (Enter /home/orgChemistry/bin/gaussian16-C.01/g16/l502.exe)
 Keep R1 ints in memory in symmetry-blocked form, NReq=26693331.
 FoFCou: FMM=F IPFlag=           0 FMFlag=           0 FMFlg1=           0
         NFxFlg=           0 DoJE=F BraDBF=F KetDBF=F FulRan=T
         wScrn=  0.000000 ICntrl=       600 IOpCl=  0 I1Cent=           0 NGrid=           0
         NMat0=    1 NMatS0=   3081 NMatT0=    0 NMatD0=    1 NMtDS0=    0 NMtDT0=    0
 Petite list used in FoFCou.
 Closed shell SCF:
 Using DIIS extrapolation, IDIIS=  1040.
 NGot=  6291456000 LenX=  6290203231 LenY=  6290194690
 Requested convergence on RMS density matrix=1.00D-08 within 128 cycles.
 Requested convergence on MAX density matrix=1.00D-06.
 Requested convergence on             energy=1.00D-06.
 No special actions if energy rises.

 Cycle   1  Pass 1  IDiag  1:
 E= -113.322836724610    
 DIIS: error= 1.33D-02 at cycle   1 NSaved=   1.
 NSaved= 1 IEnMin= 1 EnMin= -113.322836724610     IErMin= 1 ErrMin= 1.33D-02
 ErrMax= 1.33D-02  0.00D+00 EMaxC= 1.00D-01 BMatC= 1.52D-02 BMatP= 1.52D-02
 IDIUse=3 WtCom= 8.67D-01 WtEn= 1.33D-01
 Coeff-Com:  0.100D+01
 Coeff-En:   0.100D+01
 Coeff:      0.100D+01
 Recover alternate guess density for next cycle.
 RMSDP=2.15D-03 MaxDP=4.98D-02              OVMax= 0.00D+00

 Cycle   2  Pass 1  IDiag  1:
 E= -113.306265689549     Delta-E=        0.016571035061 Rises=F Damp=F
 Switch densities from cycles 1 and 2 for lowest energy.
 DIIS: error= 3.40D-02 at cycle   2 NSaved=   2.
 NSaved= 2 IEnMin= 1 EnMin= -113.322836724610     IErMin= 1 ErrMin= 1.33D-02
 ErrMax= 3.40D-02  0.00D+00 EMaxC= 1.00D+00 BMatC= 4.69D-02 BMatP= 1.52D-02
 IDIUse=1 WtCom= 1.00D+00 WtEn= 0.00D+00
 Coeff-Com:  0.699D+00 0.301D+00
 Coeff:      0.699D+00 0.301D+00
 Gap=     0.452 Goal=   None    Shift=    0.000
 RMSDP=1.79D-03 MaxDP=3.25D-02 DE= 1.66D-02 OVMax= 4.70D-02

 Cycle   3  Pass 1  IDiag  1:
 E= -113.323238345626     Delta-E=       -0.016972656077 Rises=F Damp=F
 DIIS: error= 2.19D-02 at cycle   3 NSaved=   3.
 NSaved= 3 IEnMin= 3 EnMin= -113.323238345626     IErMin= 1 ErrMin= 1.33D-02
 ErrMax= 2.19D-02  0.00D+00 EMaxC= 1.00D+00 BMatC= 1.57D-02 BMatP= 1.52D-02
 IDIUse=1 WtCom= 1.00D+00 WtEn= 0.00D+00
 Coeff-Com:  0.173D+00 0.314D+00 0.513D+00
 Coeff:      0.173D+00 0.314D+00 0.513D+00
 Gap=     0.317 Goal=   None    Shift=    0.000
 RMSDP=8.38D-04 MaxDP=2.25D-02 DE=-1.70D-02 OVMax= 4.60D-02

 Cycle   4  Pass 1  IDiag  1:
 E= -113.334527567388     Delta-E=       -0.011289221762 Rises=F Damp=F
 DIIS: error= 4.56D-03 at cycle   4 NSaved=   4.
 NSaved= 4 IEnMin= 4 EnMin= -113.334527567388     IErMin= 4 ErrMin= 4.56D-03
 ErrMax= 4.56D-03  0.00D+00 EMaxC= 1.00D+00 BMatC= 6.43D-04 BMatP= 1.52D-02
 IDIUse=1 WtCom= 1.00D+00 WtEn= 0.00D+00
 Coeff-Com:  0.448D-02 0.284D-01 0.196D+00 0.771D+00
 Coeff:      0.448D-02 0.284D-01 0.196D+00 0.771D+00
 Gap=     0.319 Goal=   None    Shift=    0.000
 RMSDP=1.80D-04 MaxDP=4.84D-03 DE=-1.13D-02 OVMax= 9.21D-03

 Cycle   5  Pass 1  IDiag  1:
 E= -113.335078990473     Delta-E=       -0.000551423084 Rises=F Damp=F
 DIIS: error= 4.35D-04 at cycle   5 NSaved=   5.
 NSaved= 5 IEnMin= 5 EnMin= -113.335078990473     IErMin= 5 ErrMin= 4.35D-04
 ErrMax= 4.35D-04  0.00D+00 EMaxC= 1.00D+00 BMatC= 5.98D-06 BMatP= 6.43D-04
 IDIUse=1 WtCom= 1.00D+00 WtEn= 0.00D+00
 Coeff-Com: -0.280D-02-0.748D-03 0.168D-01 0.160D+00 0.827D+00
 Coeff:     -0.280D-02-0.748D-03 0.168D-01 0.160D+00 0.827D+00
 Gap=     0.318 Goal=   None    Shift=    0.000
 RMSDP=1.79D-05 MaxDP=6.46D-04 DE=-5.51D-04 OVMax= 7.52D-04

 Cycle   6  Pass 1  IDiag  1:
 E= -113.335084339320     Delta-E=       -0.000005348848 Rises=F Damp=F
 DIIS: error= 2.47D-05 at cycle   6 NSaved=   6.
 NSaved= 6 IEnMin= 6 EnMin= -113.335084339320     IErMin= 6 ErrMin= 2.47D-05
 ErrMax= 2.47D-05  0.00D+00 EMaxC= 1.00D+00 BMatC= 1.85D-08 BMatP= 5.98D-06
 IDIUse=1 WtCom= 1.00D+00 WtEn= 0.00D+00
 Coeff-Com: -0.219D-03-0.479D-03-0.515D-03 0.132D-01 0.101D+00 0.887D+00
 Coeff:     -0.219D-03-0.479D-03-0.515D-03 0.132D-01 0.101D+00 0.887D+00
 Gap=     0.318 Goal=   None    Shift=    0.000
 RMSDP=1.32D-06 MaxDP=2.38D-05 DE=-5.35D-06 OVMax= 3.94D-05

 Cycle   7  Pass 1  IDiag  1:
 E= -113.335084352995     Delta-E=       -0.000000013675 Rises=F Damp=F
 DIIS: error= 2.72D-06 at cycle   7 NSaved=   7.
 NSaved= 7 IEnMin= 7 EnMin= -113.335084352995     IErMin= 7 ErrMin= 2.72D-06
 ErrMax= 2.72D-06  0.00D+00 EMaxC= 1.00D+00 BMatC= 2.26D-10 BMatP= 1.85D-08
 IDIUse=1 WtCom= 1.00D+00 WtEn= 0.00D+00
 Coeff-Com: -0.979D-05 0.251D-04-0.195D-03-0.124D-02-0.357D-02 0.935D-01
 Coeff-Com:  0.912D+00
 Coeff:     -0.979D-05 0.251D-04-0.195D-03-0.124D-02-0.357D-02 0.935D-01
 Coeff:      0.912D+00
 Gap=     0.318 Goal=   None    Shift=    0.000
 RMSDP=1.23D-07 MaxDP=3.56D-06 DE=-1.37D-08 OVMax= 4.62D-06

 Cycle   8  Pass 1  IDiag  1:
 E= -113.335084353160     Delta-E=       -0.000000000165 Rises=F Damp=F
 DIIS: error= 6.18D-07 at cycle   8 NSaved=   8.
 NSaved= 8 IEnMin= 8 EnMin= -113.335084353160     IErMin= 8 ErrMin= 6.18D-07
 ErrMax= 6.18D-07  0.00D+00 EMaxC= 1.00D+00 BMatC= 1.64D-11 BMatP= 2.26D-10
 IDIUse=1 WtCom= 1.00D+00 WtEn= 0.00D+00
 Coeff-Com:  0.268D-05 0.244D-05-0.178D-04-0.373D-03-0.193D-02 0.762D-02
 Coeff-Com:  0.209D+00 0.785D+00
 Coeff:      0.268D-05 0.244D-05-0.178D-04-0.373D-03-0.193D-02 0.762D-02
 Coeff:      0.209D+00 0.785D+00
 Gap=     0.318 Goal=   None    Shift=    0.000
 RMSDP=2.74D-08 MaxDP=6.78D-07 DE=-1.65D-10 OVMax= 1.12D-06

 Cycle   9  Pass 1  IDiag  1:
 E= -113.335084353172     Delta-E=       -0.000000000012 Rises=F Damp=F
 DIIS: error= 1.54D-08 at cycle   9 NSaved=   9.
 NSaved= 9 IEnMin= 9 EnMin= -113.335084353172     IErMin= 9 ErrMin= 1.54D-08
 ErrMax= 1.54D-08  0.00D+00 EMaxC= 1.00D+00 BMatC= 1.18D-14 BMatP= 1.64D-11
 IDIUse=1 WtCom= 1.00D+00 WtEn= 0.00D+00
 Coeff-Com:  0.123D-06-0.325D-07 0.215D-05-0.325D-05-0.721D-04-0.810D-03
 Coeff-Com: -0.331D-02 0.185D-01 0.986D+00
 Coeff:      0.123D-06-0.325D-07 0.215D-05-0.325D-05-0.721D-04-0.810D-03
 Coeff:     -0.331D-02 0.185D-01 0.986D+00
 Gap=     0.318 Goal=   None    Shift=    0.000
 RMSDP=8.09D-10 MaxDP=1.51D-08 DE=-1.19D-11 OVMax= 2.94D-08

 SCF Done:  E(RB3LYP) =  -113.335084353     A.U. after    9 cycles
            NFock=  9  Conv=0.81D-09     -V/T= 2.0071
 KE= 1.125400009531D+02 PE=-3.071694802121D+02 EE= 6.072871019164D+01
 Leave Link  502 at Tue Jan 26 00:24:37 2021, MaxMem=  6291456000 cpu:              10.0 elap:               0.5
 (Enter /home/orgChemistry/bin/gaussian16-C.01/g16/l701.exe)
 ... and contract with generalized density number  0.
 Compute integral first derivatives.
 Leave Link  701 at Tue Jan 26 00:24:37 2021, MaxMem=  6291456000 cpu:               2.7 elap:               0.1
 (Enter /home/orgChemistry/bin/gaussian16-C.01/g16/l702.exe)
 L702 exits ... SP integral derivatives will be done elsewhere.
 Leave Link  702 at Tue Jan 26 00:24:37 2021, MaxMem=  6291456000 cpu:               0.7 elap:               0.1
 (Enter /home/orgChemistry/bin/gaussian16-C.01/g16/l703.exe)
 Integral derivatives from FoFJK, PRISM(SPDF).
 Compute integral first derivatives, UseDBF=F ICtDFT=           0.
 Calling FoFJK, ICntrl=      2127 FMM=F ISym2X=1 I1Cent= 0 IOpClX= 0 NMat=1 NMatS=1 NMatT=0.
 FoFJK:  IHMeth= 1 ICntrl=    2127 DoSepK=F KAlg= 0 I1Cent=           0 FoldK=F
 IRaf=         0 NMat=       1 IRICut=       1 DoRegI=T DoRafI=F ISym2E= 1 IDoP0=0 IntGTp=1.
 FoFCou: FMM=F IPFlag=           0 FMFlag=      100000 FMFlg1=         800
         NFxFlg=           0 DoJE=F BraDBF=F KetDBF=F FulRan=T
         wScrn=  0.000000 ICntrl=      2127 IOpCl=  0 I1Cent=           0 NGrid=           0
         NMat0=    1 NMatS0=      1 NMatT0=    0 NMatD0=    1 NMtDS0=    0 NMtDT0=    0
 Petite list used in FoFCou.
 Leave Link  703 at Tue Jan 26 00:24:38 2021, MaxMem=  6291456000 cpu:               9.0 elap:               0.4
 (Enter /home/orgChemistry/bin/gaussian16-C.01/g16/l716.exe)
 Dipole        = 5.73518381D-17 2.00353578D-17-1.21656439D-01
 ***** Axes restored to original set *****
 -------------------------------------------------------------------
 Center     Atomic                   Forces (Hartrees/Bohr)
 Number     Number              X              Y              Z
 -------------------------------------------------------------------
      1        8           0.144795768    0.110932783    0.006177956
      2        6          -0.144795768   -0.110932783   -0.006177956
 -------------------------------------------------------------------
 Cartesian Forces:  Max     0.144795768 RMS     0.105372457
 Leave Link  716 at Tue Jan 26 00:24:38 2021, MaxMem=  6291456000 cpu:               0.6 elap:               0.1
 (Enter /home/orgChemistry/bin/gaussian16-C.01/g16/l103.exe)

 GradGradGradGradGradGradGradGradGradGradGradGradGradGradGradGradGradGrad
 Berny optimization.
 Using GEDIIS/GDIIS optimizer.
 Red2BG is reusing G-inverse.
 Internal  Forces:  Max     0.182510449 RMS     0.182510449
 Search for a local minimum.
 Step number   2 out of a maximum of   20
 All quantities printed in internal units (Hartrees-Bohrs-Radians)
 RMS Force = .18251D+00 SwitMx=.10000D-02 MixMth= 1
 Mixed Optimization -- RFO/linear search
 Update second derivatives using D2CorX and points    1    2
 DE= -7.07D-02 DEPred=-5.87D-02 R= 1.20D+00
 TightC=F SS=  1.41D+00  RLast= 3.00D-01 DXNew= 5.0454D-01 9.0000D-01
 Trust test= 1.20D+00 RLast= 3.00D-01 DXMaxT set to 5.05D-01
 The second derivative matrix:
                          R1
           R1           0.27701
 ITU=  1  0
 Use linear search instead of GDIIS.
     Eigenvalues ---    0.27701
 RFO step:  Lambda= 0.00000000D+00 EMin= 2.77011837D-01
 Quartic linear search produced a step of  0.73974.
 Iteration  1 RMS(Cart)=  0.14142136 RMS(Int)=  0.02192190
 Iteration  2 RMS(Cart)=  0.01550112 RMS(Int)=  0.00000000
 Iteration  3 RMS(Cart)=  0.00000000 RMS(Int)=  0.00000000
 ITry= 1 IFail=0 DXMaxC= 8.80D-02 DCOld= 1.00D+10 DXMaxT= 5.05D-01 DXLimC= 3.00D+00 Rises=F
 ClnCor:  largest displacement from symmetrization is 8.91D-16 for atom     2.
 Variable       Old X    -DE/DX   Delta X   Delta X   Delta X     New X
                                 (Linear)    (Quad)   (Total)
    R1        2.33399  -0.18251  -0.22192  -0.00000  -0.22192   2.11206
         Item               Value     Threshold  Converged?
 Maximum Force            0.182510     0.000450     NO 
 RMS     Force            0.182510     0.000300     NO 
 Maximum Displacement     0.088032     0.001800     NO 
 RMS     Displacement     0.156922     0.001200     NO 
 Predicted change in Energy=-3.368174D-02
 Lowest energy point so far.  Saving SCF results.
 GradGradGradGradGradGradGradGradGradGradGradGradGradGradGradGradGradGrad

 Leave Link  103 at Tue Jan 26 00:24:38 2021, MaxMem=  6291456000 cpu:               0.5 elap:               0.1
 (Enter /home/orgChemistry/bin/gaussian16-C.01/g16/l202.exe)
                          Input orientation:                          
 ---------------------------------------------------------------------
 Center     Atomic      Atomic             Coordinates (Angstroms)
 Number     Number       Type             X           Y           Z
 ---------------------------------------------------------------------
      1          8           0       -3.348355    1.968432   -0.014489
      2          6           0       -2.461656    2.647761    0.023343
 ---------------------------------------------------------------------
 Stoichiometry    CO
 Framework group  C*V[C*(CO)]
 Deg. of freedom     1
 Full point group                 C*V     NOp   4
 RotChk:  IX=0 Diff= 6.75D-16
 Largest Abelian subgroup         C2V     NOp   4
 Largest concise Abelian subgroup C1      NOp   1
                         Standard orientation:                         
 ---------------------------------------------------------------------
 Center     Atomic      Atomic             Coordinates (Angstroms)
 Number     Number       Type             X           Y           Z
 ---------------------------------------------------------------------
      1          8           0        0.000000    0.000000    0.478995
      2          6           0       -0.000000   -0.000000   -0.638660
 ---------------------------------------------------------------------
 Rotational constants (GHZ):           0.0000000          59.0088461          59.0088461
 Leave Link  202 at Tue Jan 26 00:24:38 2021, MaxMem=  6291456000 cpu:               0.9 elap:               0.1
 (Enter /home/orgChemistry/bin/gaussian16-C.01/g16/l301.exe)
 Standard basis: 6-311++G(3df,3pd) (5D, 7F)
 Ernie: Thresh=  0.10000D-02 Tol=  0.10000D-05 Strict=F.
 There are    42 symmetry adapted cartesian basis functions of A1  symmetry.
 There are     8 symmetry adapted cartesian basis functions of A2  symmetry.
 There are    20 symmetry adapted cartesian basis functions of B1  symmetry.
 There are    20 symmetry adapted cartesian basis functions of B2  symmetry.
 There are    34 symmetry adapted basis functions of A1  symmetry.
 There are     8 symmetry adapted basis functions of A2  symmetry.
 There are    18 symmetry adapted basis functions of B1  symmetry.
 There are    18 symmetry adapted basis functions of B2  symmetry.
    78 basis functions,   116 primitive gaussians,    90 cartesian basis functions
     7 alpha electrons        7 beta electrons
       nuclear repulsion energy        22.7265935116 Hartrees.
 IExCor=  402 DFT=T Ex+Corr=B3LYP ExCW=0 ScaHFX=  0.200000
 ScaDFX=  0.800000  0.720000  1.000000  0.810000 ScalE2=  1.000000  1.000000
 IRadAn=      5 IRanWt=     -1 IRanGd=            0 ICorTp=0 IEmpDi=  4
 NAtoms=    2 NActive=    2 NUniq=    2 SFac= 1.00D+00 NAtFMM=   60 NAOKFM=F Big=F
 Integral buffers will be    131072 words long.
 Raffenetti 2 integral format.
 Two-electron integral symmetry is turned on.
 Leave Link  301 at Tue Jan 26 00:24:38 2021, MaxMem=  6291456000 cpu:               1.3 elap:               0.1
 (Enter /home/orgChemistry/bin/gaussian16-C.01/g16/l302.exe)
 NPDir=0 NMtPBC=     1 NCelOv=     1 NCel=       1 NClECP=     1 NCelD=      1
         NCelK=      1 NCelE2=     1 NClLst=     1 CellRange=     0.0.
 One-electron integrals computed using PRISM.
 One-electron integral symmetry used in STVInt
 NBasis=    78 RedAO= T EigKep=  7.17D-04  NBF=    34     8    18    18
 NBsUse=    78 1.00D-06 EigRej= -1.00D+00 NBFU=    34     8    18    18
 Precomputing XC quadrature grid using
 IXCGrd= 4 IRadAn=           5 IRanWt=          -1 IRanGd=           0 AccXCQ= 0.00D+00.
 Generated NRdTot=       0 NPtTot=           0 NUsed=           0 NTot=          32
 NSgBfM=    90    90    90    90    90 MxSgAt=     2 MxSgA2=     2.
 Leave Link  302 at Tue Jan 26 00:24:38 2021, MaxMem=  6291456000 cpu:               7.0 elap:               0.4
 (Enter /home/orgChemistry/bin/gaussian16-C.01/g16/l303.exe)
 DipDrv:  MaxL=1.
 Leave Link  303 at Tue Jan 26 00:24:38 2021, MaxMem=  6291456000 cpu:               1.1 elap:               0.1
 (Enter /home/orgChemistry/bin/gaussian16-C.01/g16/l401.exe)
 Initial guess from the checkpoint file:  "file_name.chk"
 B after Tr=    -0.000000    0.000000   -0.000000
         Rot=    1.000000    0.000000   -0.000000    0.000000 Ang=   0.00 deg.
 Guess basis will be translated and rotated to current coordinates.
 JPrj=2 DoOrth=T DoCkMO=T.
 Initial guess orbital symmetries:
       Occupied  (SG) (SG) (SG) (SG) (PI) (PI) (SG)
       Virtual   (PI) (PI) (SG) (SG) (PI) (PI) (SG) (PI) (PI) (SG)
                 (DLTA) (DLTA) (SG) (PI) (PI) (SG) (PI) (PI) (SG)
                 (SG) (DLTA) (DLTA) (PI) (PI) (SG) (PI) (PI) (SG)
                 (DLTA) (DLTA) (PI) (PI) (SG) (SG) (PI) (PI) (PHI)
                 (PHI) (DLTA) (DLTA) (PI) (PI) (SG) (DLTA) (DLTA)
                 (SG) (PI) (PI) (SG) (PHI) (PHI) (PI) (PI) (DLTA)
                 (DLTA) (SG) (SG) (PI) (PI) (DLTA) (DLTA) (PI)
                 (PI) (SG) (DLTA) (DLTA) (PI) (PI) (SG) (SG) (SG)
 The electronic state of the initial guess is 1-SG.
 Generating alternative initial guess.
 ExpMin= 4.38D-02 ExpMax= 8.59D+03 ExpMxC= 1.30D+03 IAcc=3 IRadAn=         5 AccDes= 0.00D+00
 Harris functional with IExCor=  402 and IRadAn=       5 diagonalized for initial guess.
 HarFok:  IExCor=  402 AccDes= 0.00D+00 IRadAn=         5 IDoV= 1 UseB2=F ITyADJ=14
 ICtDFT=  3500011 ScaDFX=  1.000000  1.000000  1.000000  1.000000
 FoFCou: FMM=F IPFlag=           0 FMFlag=      100000 FMFlg1=           0
         NFxFlg=           0 DoJE=T BraDBF=F KetDBF=T FulRan=T
         wScrn=  0.000000 ICntrl=       500 IOpCl=  0 I1Cent=   200000004 NGrid=           0
         NMat0=    1 NMatS0=      1 NMatT0=    0 NMatD0=    1 NMtDS0=    0 NMtDT0=    0
 Petite list used in FoFCou.
 Harris En= -113.350492093400    
 Leave Link  401 at Tue Jan 26 00:24:39 2021, MaxMem=  6291456000 cpu:               5.1 elap:               0.3
 (Enter /home/orgChemistry/bin/gaussian16-C.01/g16/l502.exe)
 Keep R1 ints in memory in symmetry-blocked form, NReq=26693331.
 FoFCou: FMM=F IPFlag=           0 FMFlag=           0 FMFlg1=           0
         NFxFlg=           0 DoJE=F BraDBF=F KetDBF=F FulRan=T
         wScrn=  0.000000 ICntrl=       600 IOpCl=  0 I1Cent=           0 NGrid=           0
         NMat0=    1 NMatS0=   3081 NMatT0=    0 NMatD0=    1 NMtDS0=    0 NMtDT0=    0
 Petite list used in FoFCou.
 Closed shell SCF:
 Using DIIS extrapolation, IDIIS=  1040.
 NGot=  6291456000 LenX=  6290203231 LenY=  6290194690
 Requested convergence on RMS density matrix=1.00D-08 within 128 cycles.
 Requested convergence on MAX density matrix=1.00D-06.
 Requested convergence on             energy=1.00D-06.
 No special actions if energy rises.

 Cycle   1  Pass 1  IDiag  1:
 E= -113.347623343780    
 DIIS: error= 1.45D-02 at cycle   1 NSaved=   1.
 NSaved= 1 IEnMin= 1 EnMin= -113.347623343780     IErMin= 1 ErrMin= 1.45D-02
 ErrMax= 1.45D-02  0.00D+00 EMaxC= 1.00D-01 BMatC= 1.46D-02 BMatP= 1.46D-02
 IDIUse=3 WtCom= 8.55D-01 WtEn= 1.45D-01
 Coeff-Com:  0.100D+01
 Coeff-En:   0.100D+01
 Coeff:      0.100D+01
 Recover alternate guess density for next cycle.
 RMSDP=1.80D-03 MaxDP=2.94D-02              OVMax= 0.00D+00

 Cycle   2  Pass 1  IDiag  1:
 E= -113.333757098893     Delta-E=        0.013866244887 Rises=F Damp=F
 Switch densities from cycles 1 and 2 for lowest energy.
 DIIS: error= 2.75D-02 at cycle   2 NSaved=   2.
 NSaved= 2 IEnMin= 1 EnMin= -113.347623343780     IErMin= 1 ErrMin= 1.45D-02
 ErrMax= 2.75D-02  0.00D+00 EMaxC= 1.00D+00 BMatC= 4.27D-02 BMatP= 1.46D-02
 IDIUse=1 WtCom= 1.00D+00 WtEn= 0.00D+00
 Coeff-Com:  0.673D+00 0.327D+00
 Coeff:      0.673D+00 0.327D+00
 Gap=     0.433 Goal=   None    Shift=    0.000
 RMSDP=1.47D-03 MaxDP=2.64D-02 DE= 1.39D-02 OVMax= 3.44D-02

 Cycle   3  Pass 1  IDiag  1:
 E= -113.351470062759     Delta-E=       -0.017712963867 Rises=F Damp=F
 DIIS: error= 1.44D-02 at cycle   3 NSaved=   3.
 NSaved= 3 IEnMin= 3 EnMin= -113.351470062759     IErMin= 3 ErrMin= 1.44D-02
 ErrMax= 1.44D-02  0.00D+00 EMaxC= 1.00D+00 BMatC= 7.55D-03 BMatP= 1.46D-02
 IDIUse=1 WtCom= 1.00D+00 WtEn= 0.00D+00
 Coeff-Com:  0.218D+00 0.251D+00 0.530D+00
 Coeff:      0.218D+00 0.251D+00 0.530D+00
 Gap=     0.345 Goal=   None    Shift=    0.000
 RMSDP=6.58D-04 MaxDP=1.62D-02 DE=-1.77D-02 OVMax= 3.31D-02

 Cycle   4  Pass 1  IDiag  1:
 E= -113.355947722142     Delta-E=       -0.004477659382 Rises=F Damp=F
 DIIS: error= 5.14D-03 at cycle   4 NSaved=   4.
 NSaved= 4 IEnMin= 4 EnMin= -113.355947722142     IErMin= 4 ErrMin= 5.14D-03
 ErrMax= 5.14D-03  0.00D+00 EMaxC= 1.00D+00 BMatC= 9.18D-04 BMatP= 7.55D-03
 IDIUse=1 WtCom= 1.00D+00 WtEn= 0.00D+00
 Coeff-Com:  0.120D-01 0.380D-01 0.290D+00 0.660D+00
 Coeff:      0.120D-01 0.380D-01 0.290D+00 0.660D+00
 Gap=     0.349 Goal=   None    Shift=    0.000
 RMSDP=2.10D-04 MaxDP=6.60D-03 DE=-4.48D-03 OVMax= 9.77D-03

 Cycle   5  Pass 1  IDiag  1:
 E= -113.356681822401     Delta-E=       -0.000734100259 Rises=F Damp=F
 DIIS: error= 2.40D-04 at cycle   5 NSaved=   5.
 NSaved= 5 IEnMin= 5 EnMin= -113.356681822401     IErMin= 5 ErrMin= 2.40D-04
 ErrMax= 2.40D-04  0.00D+00 EMaxC= 1.00D+00 BMatC= 3.41D-06 BMatP= 9.18D-04
 IDIUse=1 WtCom= 1.00D+00 WtEn= 0.00D+00
 Coeff-Com: -0.186D-02-0.127D-02 0.315D-01 0.132D+00 0.840D+00
 Coeff:     -0.186D-02-0.127D-02 0.315D-01 0.132D+00 0.840D+00
 Gap=     0.348 Goal=   None    Shift=    0.000
 RMSDP=2.14D-05 MaxDP=8.70D-04 DE=-7.34D-04 OVMax= 7.40D-04

 Cycle   6  Pass 1  IDiag  1:
 E= -113.356685083792     Delta-E=       -0.000003261391 Rises=F Damp=F
 DIIS: error= 1.85D-05 at cycle   6 NSaved=   6.
 NSaved= 6 IEnMin= 6 EnMin= -113.356685083792     IErMin= 6 ErrMin= 1.85D-05
 ErrMax= 1.85D-05  0.00D+00 EMaxC= 1.00D+00 BMatC= 1.66D-08 BMatP= 3.41D-06
 IDIUse=1 WtCom= 1.00D+00 WtEn= 0.00D+00
 Coeff-Com: -0.224D-03-0.215D-03-0.325D-03 0.639D-02 0.778D-01 0.917D+00
 Coeff:     -0.224D-03-0.215D-03-0.325D-03 0.639D-02 0.778D-01 0.917D+00
 Gap=     0.348 Goal=   None    Shift=    0.000
 RMSDP=9.58D-07 MaxDP=2.19D-05 DE=-3.26D-06 OVMax= 3.66D-05

 Cycle   7  Pass 1  IDiag  1:
 E= -113.356685095328     Delta-E=       -0.000000011536 Rises=F Damp=F
 DIIS: error= 1.72D-06 at cycle   7 NSaved=   7.
 NSaved= 7 IEnMin= 7 EnMin= -113.356685095328     IErMin= 7 ErrMin= 1.72D-06
 ErrMax= 1.72D-06  0.00D+00 EMaxC= 1.00D+00 BMatC= 9.42D-11 BMatP= 1.66D-08
 IDIUse=1 WtCom= 1.00D+00 WtEn= 0.00D+00
 Coeff-Com:  0.480D-05-0.646D-05-0.210D-03-0.875D-03-0.320D-02 0.351D-01
 Coeff-Com:  0.969D+00
 Coeff:      0.480D-05-0.646D-05-0.210D-03-0.875D-03-0.320D-02 0.351D-01
 Coeff:      0.969D+00
 Gap=     0.348 Goal=   None    Shift=    0.000
 RMSDP=1.11D-07 MaxDP=3.86D-06 DE=-1.15D-08 OVMax= 3.10D-06

 Cycle   8  Pass 1  IDiag  1:
 E= -113.356685095403     Delta-E=       -0.000000000075 Rises=F Damp=F
 DIIS: error= 1.05D-07 at cycle   8 NSaved=   8.
 NSaved= 8 IEnMin= 8 EnMin= -113.356685095403     IErMin= 8 ErrMin= 1.05D-07
 ErrMax= 1.05D-07  0.00D+00 EMaxC= 1.00D+00 BMatC= 5.41D-13 BMatP= 9.42D-11
 IDIUse=1 WtCom= 1.00D+00 WtEn= 0.00D+00
 Coeff-Com:  0.784D-06 0.233D-05-0.333D-04-0.168D-03-0.915D-03 0.309D-02
 Coeff-Com:  0.146D+00 0.852D+00
 Coeff:      0.784D-06 0.233D-05-0.333D-04-0.168D-03-0.915D-03 0.309D-02
 Coeff:      0.146D+00 0.852D+00
 Gap=     0.348 Goal=   None    Shift=    0.000
 RMSDP=5.19D-09 MaxDP=6.16D-08 DE=-7.49D-11 OVMax= 2.23D-07

 SCF Done:  E(RB3LYP) =  -113.356685095     A.U. after    8 cycles
            NFock=  8  Conv=0.52D-08     -V/T= 2.0031
 KE= 1.130054591385D+02 PE=-3.117702343427D+02 EE= 6.268149659714D+01
 Leave Link  502 at Tue Jan 26 00:24:39 2021, MaxMem=  6291456000 cpu:              10.7 elap:               0.5
 (Enter /home/orgChemistry/bin/gaussian16-C.01/g16/l701.exe)
 ... and contract with generalized density number  0.
 Compute integral first derivatives.
 Leave Link  701 at Tue Jan 26 00:24:39 2021, MaxMem=  6291456000 cpu:               2.7 elap:               0.1
 (Enter /home/orgChemistry/bin/gaussian16-C.01/g16/l702.exe)
 L702 exits ... SP integral derivatives will be done elsewhere.
 Leave Link  702 at Tue Jan 26 00:24:39 2021, MaxMem=  6291456000 cpu:               0.5 elap:               0.0
 (Enter /home/orgChemistry/bin/gaussian16-C.01/g16/l703.exe)
 Integral derivatives from FoFJK, PRISM(SPDF).
 Compute integral first derivatives, UseDBF=F ICtDFT=           0.
 Calling FoFJK, ICntrl=      2127 FMM=F ISym2X=1 I1Cent= 0 IOpClX= 0 NMat=1 NMatS=1 NMatT=0.
 FoFJK:  IHMeth= 1 ICntrl=    2127 DoSepK=F KAlg= 0 I1Cent=           0 FoldK=F
 IRaf=         0 NMat=       1 IRICut=       1 DoRegI=T DoRafI=F ISym2E= 1 IDoP0=0 IntGTp=1.
 FoFCou: FMM=F IPFlag=           0 FMFlag=      100000 FMFlg1=         800
         NFxFlg=           0 DoJE=F BraDBF=F KetDBF=F FulRan=T
         wScrn=  0.000000 ICntrl=      2127 IOpCl=  0 I1Cent=           0 NGrid=           0
         NMat0=    1 NMatS0=      1 NMatT0=    0 NMatD0=    1 NMtDS0=    0 NMtDT0=    0
 Petite list used in FoFCou.
 Leave Link  703 at Tue Jan 26 00:24:40 2021, MaxMem=  6291456000 cpu:               9.0 elap:               0.4
 (Enter /home/orgChemistry/bin/gaussian16-C.01/g16/l716.exe)
 Dipole        =-6.03993519D-17 3.56397258D-17 4.71623140D-02
 ***** Axes restored to original set *****
 -------------------------------------------------------------------
 Center     Atomic                   Forces (Hartrees/Bohr)
 Number     Number              X              Y              Z
 -------------------------------------------------------------------
      1        8          -0.013317161   -0.010202713   -0.000568199
      2        6           0.013317161    0.010202713    0.000568199
 -------------------------------------------------------------------
 Cartesian Forces:  Max     0.013317161 RMS     0.009691319
 Leave Link  716 at Tue Jan 26 00:24:40 2021, MaxMem=  6291456000 cpu:               0.8 elap:               0.1
 (Enter /home/orgChemistry/bin/gaussian16-C.01/g16/l103.exe)

 GradGradGradGradGradGradGradGradGradGradGradGradGradGradGradGradGradGrad
 Berny optimization.
 Using GEDIIS/GDIIS optimizer.
 Red2BG is reusing G-inverse.
 Internal  Forces:  Max     0.016785856 RMS     0.016785856
 Search for a local minimum.
 Step number   3 out of a maximum of   20
 All quantities printed in internal units (Hartrees-Bohrs-Radians)
 RMS Force = .16786D-01 SwitMx=.10000D-02 MixMth= 1
 Mixed Optimization -- RFO/linear search
 Update second derivatives using D2CorX and points    2    3
 DE= -2.16D-02 DEPred=-3.37D-02 R= 6.41D-01
 TightC=F SS=  1.41D+00  RLast= 2.22D-01 DXNew= 8.4853D-01 6.6577D-01
 Trust test= 6.41D-01 RLast= 2.22D-01 DXMaxT set to 6.66D-01
 The second derivative matrix:
                          R1
           R1           0.89805
 ITU=  1  1
 Use linear search instead of GDIIS.
     Eigenvalues ---    0.89805
 RFO step:  Lambda= 0.00000000D+00 EMin= 8.98047050D-01
 Quartic linear search produced a step of -0.05862.
 Iteration  1 RMS(Cart)=  0.00919823 RMS(Int)=  0.00000000
 Iteration  2 RMS(Cart)=  0.00000000 RMS(Int)=  0.00000000
 ITry= 1 IFail=0 DXMaxC= 5.16D-03 DCOld= 1.00D+10 DXMaxT= 6.66D-01 DXLimC= 3.00D+00 Rises=F
 ClnCor:  largest displacement from symmetrization is 8.90D-16 for atom     2.
 Variable       Old X    -DE/DX   Delta X   Delta X   Delta X     New X
                                 (Linear)    (Quad)   (Total)
    R1        2.11206   0.01679   0.01301  -0.00000   0.01301   2.12507
         Item               Value     Threshold  Converged?
 Maximum Force            0.016786     0.000450     NO 
 RMS     Force            0.016786     0.000300     NO 
 Maximum Displacement     0.005160     0.001800     NO 
 RMS     Displacement     0.009198     0.001200     NO 
 Predicted change in Energy=-1.423734D-04
 Lowest energy point so far.  Saving SCF results.
 GradGradGradGradGradGradGradGradGradGradGradGradGradGradGradGradGradGrad

 Leave Link  103 at Tue Jan 26 00:24:40 2021, MaxMem=  6291456000 cpu:               1.7 elap:               0.1
 (Enter /home/orgChemistry/bin/gaussian16-C.01/g16/l202.exe)
                          Input orientation:                          
 ---------------------------------------------------------------------
 Center     Atomic      Atomic             Coordinates (Angstroms)
 Number     Number       Type             X           Y           Z
 ---------------------------------------------------------------------
      1          8           0       -3.351085    1.966340   -0.014606
      2          6           0       -2.458925    2.649853    0.023460
 ---------------------------------------------------------------------
 Stoichiometry    CO
 Framework group  C*V[C*(CO)]
 Deg. of freedom     1
 Full point group                 C*V     NOp   4
 RotChk:  IX=0 Diff= 4.79D-16
 Largest Abelian subgroup         C2V     NOp   4
 Largest concise Abelian subgroup C1      NOp   1
                         Standard orientation:                         
 ---------------------------------------------------------------------
 Center     Atomic      Atomic             Coordinates (Angstroms)
 Number     Number       Type             X           Y           Z
 ---------------------------------------------------------------------
      1          8           0        0.000000   -0.000000    0.481945
      2          6           0       -0.000000    0.000000   -0.642594
 ---------------------------------------------------------------------
 Rotational constants (GHZ):           0.0000000          58.2886317          58.2886317
 Leave Link  202 at Tue Jan 26 00:24:40 2021, MaxMem=  6291456000 cpu:               1.0 elap:               0.1
 (Enter /home/orgChemistry/bin/gaussian16-C.01/g16/l301.exe)
 Standard basis: 6-311++G(3df,3pd) (5D, 7F)
 Ernie: Thresh=  0.10000D-02 Tol=  0.10000D-05 Strict=F.
 There are    42 symmetry adapted cartesian basis functions of A1  symmetry.
 There are     8 symmetry adapted cartesian basis functions of A2  symmetry.
 There are    20 symmetry adapted cartesian basis functions of B1  symmetry.
 There are    20 symmetry adapted cartesian basis functions of B2  symmetry.
 There are    34 symmetry adapted basis functions of A1  symmetry.
 There are     8 symmetry adapted basis functions of A2  symmetry.
 There are    18 symmetry adapted basis functions of B1  symmetry.
 There are    18 symmetry adapted basis functions of B2  symmetry.
    78 basis functions,   116 primitive gaussians,    90 cartesian basis functions
     7 alpha electrons        7 beta electrons
       nuclear repulsion energy        22.5874764776 Hartrees.
 IExCor=  402 DFT=T Ex+Corr=B3LYP ExCW=0 ScaHFX=  0.200000
 ScaDFX=  0.800000  0.720000  1.000000  0.810000 ScalE2=  1.000000  1.000000
 IRadAn=      5 IRanWt=     -1 IRanGd=            0 ICorTp=0 IEmpDi=  4
 NAtoms=    2 NActive=    2 NUniq=    2 SFac= 1.00D+00 NAtFMM=   60 NAOKFM=F Big=F
 Integral buffers will be    131072 words long.
 Raffenetti 2 integral format.
 Two-electron integral symmetry is turned on.
 Leave Link  301 at Tue Jan 26 00:24:40 2021, MaxMem=  6291456000 cpu:               1.4 elap:               0.1
 (Enter /home/orgChemistry/bin/gaussian16-C.01/g16/l302.exe)
 NPDir=0 NMtPBC=     1 NCelOv=     1 NCel=       1 NClECP=     1 NCelD=      1
         NCelK=      1 NCelE2=     1 NClLst=     1 CellRange=     0.0.
 One-electron integrals computed using PRISM.
 One-electron integral symmetry used in STVInt
 NBasis=    78 RedAO= T EigKep=  7.28D-04  NBF=    34     8    18    18
 NBsUse=    78 1.00D-06 EigRej= -1.00D+00 NBFU=    34     8    18    18
 Precomputing XC quadrature grid using
 IXCGrd= 4 IRadAn=           5 IRanWt=          -1 IRanGd=           0 AccXCQ= 0.00D+00.
 Generated NRdTot=       0 NPtTot=           0 NUsed=           0 NTot=          32
 NSgBfM=    90    90    90    90    90 MxSgAt=     2 MxSgA2=     2.
 Leave Link  302 at Tue Jan 26 00:24:40 2021, MaxMem=  6291456000 cpu:               5.4 elap:               0.3
 (Enter /home/orgChemistry/bin/gaussian16-C.01/g16/l303.exe)
 DipDrv:  MaxL=1.
 Leave Link  303 at Tue Jan 26 00:24:40 2021, MaxMem=  6291456000 cpu:               1.1 elap:               0.1
 (Enter /home/orgChemistry/bin/gaussian16-C.01/g16/l401.exe)
 Initial guess from the checkpoint file:  "file_name.chk"
 B after Tr=     0.000000   -0.000000    0.000000
         Rot=    1.000000   -0.000000    0.000000    0.000000 Ang=   0.00 deg.
 Guess basis will be translated and rotated to current coordinates.
 JPrj=2 DoOrth=T DoCkMO=T.
 Initial guess orbital symmetries:
       Occupied  (SG) (SG) (SG) (SG) (PI) (PI) (SG)
       Virtual   (PI) (PI) (SG) (SG) (PI) (PI) (SG) (PI) (PI) (SG)
                 (DLTA) (DLTA) (SG) (PI) (PI) (SG) (PI) (PI) (SG)
                 (SG) (DLTA) (DLTA) (PI) (PI) (SG) (PI) (PI) (SG)
                 (DLTA) (DLTA) (PI) (PI) (SG) (SG) (PI) (PI) (PHI)
                 (PHI) (DLTA) (DLTA) (PI) (PI) (SG) (DLTA) (DLTA)
                 (SG) (PI) (PI) (SG) (PHI) (PHI) (PI) (PI) (SG)
                 (DLTA) (DLTA) (SG) (PI) (PI) (DLTA) (DLTA) (PI)
                 (PI) (SG) (DLTA) (DLTA) (PI) (PI) (SG) (SG) (SG)
 The electronic state of the initial guess is 1-SG.
 Leave Link  401 at Tue Jan 26 00:24:41 2021, MaxMem=  6291456000 cpu:              10.0 elap:               0.6
 (Enter /home/orgChemistry/bin/gaussian16-C.01/g16/l502.exe)
 Keep R1 ints in memory in symmetry-blocked form, NReq=26693331.
 FoFCou: FMM=F IPFlag=           0 FMFlag=           0 FMFlg1=           0
         NFxFlg=           0 DoJE=F BraDBF=F KetDBF=F FulRan=T
         wScrn=  0.000000 ICntrl=       600 IOpCl=  0 I1Cent=           0 NGrid=           0
         NMat0=    1 NMatS0=   3081 NMatT0=    0 NMatD0=    1 NMtDS0=    0 NMtDT0=    0
 Petite list used in FoFCou.
 Closed shell SCF:
 Using DIIS extrapolation, IDIIS=  1040.
 NGot=  6291456000 LenX=  6290203231 LenY=  6290194690
 Requested convergence on RMS density matrix=1.00D-08 within 128 cycles.
 Requested convergence on MAX density matrix=1.00D-06.
 Requested convergence on             energy=1.00D-06.
 No special actions if energy rises.

 Cycle   1  Pass 1  IDiag  1:
 E= -113.356755526026    
 DIIS: error= 9.82D-04 at cycle   1 NSaved=   1.
 NSaved= 1 IEnMin= 1 EnMin= -113.356755526026     IErMin= 1 ErrMin= 9.82D-04
 ErrMax= 9.82D-04  0.00D+00 EMaxC= 1.00D-01 BMatC= 6.80D-05 BMatP= 6.80D-05
 IDIUse=3 WtCom= 9.90D-01 WtEn= 9.82D-03
 Coeff-Com:  0.100D+01
 Coeff-En:   0.100D+01
 Coeff:      0.100D+01
 Gap=     0.348 Goal=   None    Shift=    0.000
 RMSDP=8.12D-05 MaxDP=1.41D-03              OVMax= 2.26D-03

 Cycle   2  Pass 1  IDiag  1:
 E= -113.356783342746     Delta-E=       -0.000027816721 Rises=F Damp=F
 DIIS: error= 4.44D-04 at cycle   2 NSaved=   2.
 NSaved= 2 IEnMin= 2 EnMin= -113.356783342746     IErMin= 2 ErrMin= 4.44D-04
 ErrMax= 4.44D-04  0.00D+00 EMaxC= 1.00D-01 BMatC= 1.39D-05 BMatP= 6.80D-05
 IDIUse=3 WtCom= 9.96D-01 WtEn= 4.44D-03
 Coeff-Com:  0.254D+00 0.746D+00
 Coeff-En:   0.000D+00 0.100D+01
 Coeff:      0.253D+00 0.747D+00
 Gap=     0.346 Goal=   None    Shift=    0.000
 RMSDP=3.86D-05 MaxDP=1.18D-03 DE=-2.78D-05 OVMax= 1.74D-03

 Cycle   3  Pass 1  IDiag  1:
 E= -113.356782596248     Delta-E=        0.000000746498 Rises=F Damp=F
 DIIS: error= 6.19D-04 at cycle   3 NSaved=   3.
 NSaved= 3 IEnMin= 2 EnMin= -113.356783342746     IErMin= 2 ErrMin= 4.44D-04
 ErrMax= 6.19D-04  0.00D+00 EMaxC= 1.00D-01 BMatC= 1.41D-05 BMatP= 1.39D-05
 IDIUse=3 WtCom= 9.94D-01 WtEn= 6.19D-03
 Coeff-Com:  0.683D-01 0.497D+00 0.435D+00
 Coeff-En:   0.000D+00 0.518D+00 0.482D+00
 Coeff:      0.678D-01 0.497D+00 0.435D+00
 Gap=     0.347 Goal=   None    Shift=    0.000
 RMSDP=2.35D-05 MaxDP=4.79D-04 DE= 7.46D-07 OVMax= 1.31D-03

 Cycle   4  Pass 1  IDiag  1:
 E= -113.356791070180     Delta-E=       -0.000008473932 Rises=F Damp=F
 DIIS: error= 1.77D-04 at cycle   4 NSaved=   4.
 NSaved= 4 IEnMin= 4 EnMin= -113.356791070180     IErMin= 4 ErrMin= 1.77D-04
 ErrMax= 1.77D-04  0.00D+00 EMaxC= 1.00D-01 BMatC= 1.27D-06 BMatP= 1.39D-05
 IDIUse=3 WtCom= 9.98D-01 WtEn= 1.77D-03
 Coeff-Com: -0.197D-02 0.156D+00 0.272D+00 0.574D+00
 Coeff-En:   0.000D+00 0.000D+00 0.112D+00 0.888D+00
 Coeff:     -0.197D-02 0.156D+00 0.272D+00 0.575D+00
 Gap=     0.347 Goal=   None    Shift=    0.000
 RMSDP=8.24D-06 MaxDP=2.69D-04 DE=-8.47D-06 OVMax= 3.58D-04

 Cycle   5  Pass 1  IDiag  1:
 E= -113.356792079020     Delta-E=       -0.000001008840 Rises=F Damp=F
 DIIS: error= 7.03D-06 at cycle   5 NSaved=   5.
 NSaved= 5 IEnMin= 5 EnMin= -113.356792079020     IErMin= 5 ErrMin= 7.03D-06
 ErrMax= 7.03D-06  0.00D+00 EMaxC= 1.00D-01 BMatC= 3.11D-09 BMatP= 1.27D-06
 IDIUse=1 WtCom= 1.00D+00 WtEn= 0.00D+00
 Coeff-Com: -0.103D-02 0.119D-01 0.303D-01 0.104D+00 0.855D+00
 Coeff:     -0.103D-02 0.119D-01 0.303D-01 0.104D+00 0.855D+00
 Gap=     0.347 Goal=   None    Shift=    0.000
 RMSDP=7.00D-07 MaxDP=2.82D-05 DE=-1.01D-06 OVMax= 2.40D-05

 Cycle   6  Pass 1  IDiag  1:
 E= -113.356792081991     Delta-E=       -0.000000002971 Rises=F Damp=F
 DIIS: error= 8.00D-07 at cycle   6 NSaved=   6.
 NSaved= 6 IEnMin= 6 EnMin= -113.356792081991     IErMin= 6 ErrMin= 8.00D-07
 ErrMax= 8.00D-07  0.00D+00 EMaxC= 1.00D-01 BMatC= 3.74D-11 BMatP= 3.11D-09
 IDIUse=1 WtCom= 1.00D+00 WtEn= 0.00D+00
 Coeff-Com: -0.914D-04-0.175D-02-0.596D-03 0.439D-02 0.149D+00 0.849D+00
 Coeff:     -0.914D-04-0.175D-02-0.596D-03 0.439D-02 0.149D+00 0.849D+00
 Gap=     0.347 Goal=   None    Shift=    0.000
 RMSDP=6.02D-08 MaxDP=2.18D-06 DE=-2.97D-09 OVMax= 1.75D-06

 Cycle   7  Pass 1  IDiag  1:
 E= -113.356792082019     Delta-E=       -0.000000000028 Rises=F Damp=F
 DIIS: error= 6.89D-08 at cycle   7 NSaved=   7.
 NSaved= 7 IEnMin= 7 EnMin= -113.356792082019     IErMin= 7 ErrMin= 6.89D-08
 ErrMax= 6.89D-08  0.00D+00 EMaxC= 1.00D-01 BMatC= 1.41D-13 BMatP= 3.74D-11
 IDIUse=1 WtCom= 1.00D+00 WtEn= 0.00D+00
 Coeff-Com:  0.499D-05-0.118D-03-0.314D-03-0.669D-03-0.476D-02 0.114D-01
 Coeff-Com:  0.994D+00
 Coeff:      0.499D-05-0.118D-03-0.314D-03-0.669D-03-0.476D-02 0.114D-01
 Coeff:      0.994D+00
 Gap=     0.347 Goal=   None    Shift=    0.000
 RMSDP=3.70D-09 MaxDP=8.21D-08 DE=-2.81D-11 OVMax= 1.28D-07

 SCF Done:  E(RB3LYP) =  -113.356792082     A.U. after    7 cycles
            NFock=  7  Conv=0.37D-08     -V/T= 2.0034
 KE= 1.129707828652D+02 PE=-3.114718587299D+02 EE= 6.255680730512D+01
 Leave Link  502 at Tue Jan 26 00:24:42 2021, MaxMem=  6291456000 cpu:               9.4 elap:               0.5
 (Enter /home/orgChemistry/bin/gaussian16-C.01/g16/l701.exe)
 ... and contract with generalized density number  0.
 Compute integral first derivatives.
 Leave Link  701 at Tue Jan 26 00:24:42 2021, MaxMem=  6291456000 cpu:               3.8 elap:               0.2
 (Enter /home/orgChemistry/bin/gaussian16-C.01/g16/l702.exe)
 L702 exits ... SP integral derivatives will be done elsewhere.
 Leave Link  702 at Tue Jan 26 00:24:42 2021, MaxMem=  6291456000 cpu:               0.4 elap:               0.0
 (Enter /home/orgChemistry/bin/gaussian16-C.01/g16/l703.exe)
 Integral derivatives from FoFJK, PRISM(SPDF).
 Compute integral first derivatives, UseDBF=F ICtDFT=           0.
 Calling FoFJK, ICntrl=      2127 FMM=F ISym2X=1 I1Cent= 0 IOpClX= 0 NMat=1 NMatS=1 NMatT=0.
 FoFJK:  IHMeth= 1 ICntrl=    2127 DoSepK=F KAlg= 0 I1Cent=           0 FoldK=F
 IRaf=         0 NMat=       1 IRICut=       1 DoRegI=T DoRafI=F ISym2E= 1 IDoP0=0 IntGTp=1.
 FoFCou: FMM=F IPFlag=           0 FMFlag=      100000 FMFlg1=         800
         NFxFlg=           0 DoJE=F BraDBF=F KetDBF=F FulRan=T
         wScrn=  0.000000 ICntrl=      2127 IOpCl=  0 I1Cent=           0 NGrid=           0
         NMat0=    1 NMatS0=      1 NMatT0=    0 NMatD0=    1 NMtDS0=    0 NMtDT0=    0
 Petite list used in FoFCou.
 Leave Link  703 at Tue Jan 26 00:24:43 2021, MaxMem=  6291456000 cpu:              14.2 elap:               0.7
 (Enter /home/orgChemistry/bin/gaussian16-C.01/g16/l716.exe)
 Dipole        =-7.04628674D-17 5.39768413D-17 3.74337110D-02
 ***** Axes restored to original set *****
 -------------------------------------------------------------------
 Center     Atomic                   Forces (Hartrees/Bohr)
 Number     Number              X              Y              Z
 -------------------------------------------------------------------
      1        8           0.000159328    0.000122067    0.000006798
      2        6          -0.000159328   -0.000122067   -0.000006798
 -------------------------------------------------------------------
 Cartesian Forces:  Max     0.000159328 RMS     0.000115948
 Leave Link  716 at Tue Jan 26 00:24:43 2021, MaxMem=  6291456000 cpu:               0.9 elap:               0.1
 (Enter /home/orgChemistry/bin/gaussian16-C.01/g16/l103.exe)

 GradGradGradGradGradGradGradGradGradGradGradGradGradGradGradGradGradGrad
 Berny optimization.
 Using GEDIIS/GDIIS optimizer.
 Red2BG is reusing G-inverse.
 Internal  Forces:  Max     0.000200828 RMS     0.000200828
 Search for a local minimum.
 Step number   4 out of a maximum of   20
 All quantities printed in internal units (Hartrees-Bohrs-Radians)
 RMS Force = .20083D-03 SwitMx=.10000D-02 MixMth= 2
 Mixed Optimization -- En-DIIS/RFO-DIIS
 Update second derivatives using D2CorX and points    3    4
 DE= -1.07D-04 DEPred=-1.42D-04 R= 7.51D-01
 TightC=F SS=  1.41D+00  RLast= 1.30D-02 DXNew= 1.1197D+00 3.9025D-02
 Trust test= 7.51D-01 RLast= 1.30D-02 DXMaxT set to 6.66D-01
 The second derivative matrix:
                          R1
           R1           1.30584
 ITU=  1  1
 Use linear search instead of GDIIS.
     Eigenvalues ---    1.30584
 RFO step:  Lambda= 0.00000000D+00 EMin= 1.30583751D+00
 Quartic linear search produced a step of -0.01211.
 Iteration  1 RMS(Cart)=  0.00011138 RMS(Int)=  0.00000000
 Iteration  2 RMS(Cart)=  0.00000000 RMS(Int)=  0.00000000
 ITry= 1 IFail=0 DXMaxC= 6.25D-05 DCOld= 1.00D+10 DXMaxT= 6.66D-01 DXLimC= 3.00D+00 Rises=F
 ClnCor:  largest displacement from symmetrization is 8.90D-16 for atom     1.
 Variable       Old X    -DE/DX   Delta X   Delta X   Delta X     New X
                                 (Linear)    (Quad)   (Total)
    R1        2.12507  -0.00020  -0.00016   0.00000  -0.00016   2.12491
         Item               Value     Threshold  Converged?
 Maximum Force            0.000201     0.000450     YES
 RMS     Force            0.000201     0.000300     YES
 Maximum Displacement     0.000062     0.001800     YES
 RMS     Displacement     0.000111     0.001200     YES
 Predicted change in Energy=-1.543393D-08
 Optimization completed.
    -- Stationary point found.
                           ----------------------------
                           !   Optimized Parameters   !
                           ! (Angstroms and Degrees)  !
 --------------------------                            --------------------------
 ! Name  Definition              Value          Derivative Info.                !
 --------------------------------------------------------------------------------
 ! R1    R(1,2)                  1.1245         -DE/DX =   -0.0002              !
 --------------------------------------------------------------------------------
 Lowest energy point so far.  Saving SCF results.
 Largest change from initial coordinates is atom    2       0.154 Angstoms.
 GradGradGradGradGradGradGradGradGradGradGradGradGradGradGradGradGradGrad

 Leave Link  103 at Tue Jan 26 00:24:43 2021, MaxMem=  6291456000 cpu:               1.9 elap:               0.1
 (Enter /home/orgChemistry/bin/gaussian16-C.01/g16/l202.exe)
                          Input orientation:                          
 ---------------------------------------------------------------------
 Center     Atomic      Atomic             Coordinates (Angstroms)
 Number     Number       Type             X           Y           Z
 ---------------------------------------------------------------------
      1          8           0       -3.351085    1.966340   -0.014606
      2          6           0       -2.458925    2.649853    0.023460
 ---------------------------------------------------------------------
 Stoichiometry    CO
 Framework group  C*V[C*(CO)]
 Deg. of freedom     1
 Full point group                 C*V     NOp   4
 RotChk:  IX=0 Diff= 4.08D-16
 Largest Abelian subgroup         C2V     NOp   4
 Largest concise Abelian subgroup C1      NOp   1
                         Standard orientation:                         
 ---------------------------------------------------------------------
 Center     Atomic      Atomic             Coordinates (Angstroms)
 Number     Number       Type             X           Y           Z
 ---------------------------------------------------------------------
      1          8           0        0.000000   -0.000000    0.481945
      2          6           0       -0.000000    0.000000   -0.642594
 ---------------------------------------------------------------------
 Rotational constants (GHZ):           0.0000000          58.2886317          58.2886317
 Leave Link  202 at Tue Jan 26 00:24:43 2021, MaxMem=  6291456000 cpu:               0.4 elap:               0.0
 (Enter /home/orgChemistry/bin/gaussian16-C.01/g16/l601.exe)
 Copying SCF densities to generalized density rwf, IOpCl= 0 IROHF=0.

 **********************************************************************

            Population analysis using the SCF Density.

 **********************************************************************

 Orbital symmetries:
       Occupied  (SG) (SG) (SG) (SG) (PI) (PI) (SG)
       Virtual   (PI) (PI) (SG) (SG) (PI) (PI) (SG) (PI) (PI) (SG)
                 (DLTA) (DLTA) (SG) (PI) (PI) (SG) (PI) (PI) (SG)
                 (SG) (DLTA) (DLTA) (PI) (PI) (SG) (PI) (PI) (SG)
                 (DLTA) (DLTA) (PI) (PI) (SG) (SG) (PI) (PI) (PHI)
                 (PHI) (DLTA) (DLTA) (PI) (PI) (SG) (DLTA) (DLTA)
                 (SG) (PI) (PI) (SG) (PHI) (PHI) (PI) (PI) (DLTA)
                 (DLTA) (SG) (SG) (PI) (PI) (DLTA) (DLTA) (PI)
                 (PI) (SG) (DLTA) (DLTA) (PI) (PI) (SG) (SG) (SG)
 The electronic state is 1-SG.
 Alpha  occ. eigenvalues --  -19.23701 -10.29320  -1.17537  -0.58515  -0.48663
 Alpha  occ. eigenvalues --   -0.48663  -0.38688
 Alpha virt. eigenvalues --   -0.04022  -0.04022   0.02510   0.05857   0.06946
 Alpha virt. eigenvalues --    0.06946   0.17317   0.20118   0.20118   0.23575
 Alpha virt. eigenvalues --    0.31857   0.31857   0.38512   0.46582   0.46582
 Alpha virt. eigenvalues --    0.51259   0.53562   0.53562   0.73591   0.77360
 Alpha virt. eigenvalues --    0.84067   0.84067   0.95726   0.95726   1.03628
 Alpha virt. eigenvalues --    1.22156   1.22156   1.39541   1.54857   1.54857
 Alpha virt. eigenvalues --    1.82065   1.82065   1.82511   2.12271   2.72001
 Alpha virt. eigenvalues --    2.72001   2.76009   2.76009   2.82313   2.82313
 Alpha virt. eigenvalues --    2.94973   2.94973   3.15484   3.41118   3.41118
 Alpha virt. eigenvalues --    3.60324   4.12541   4.12541   4.19212   4.96803
 Alpha virt. eigenvalues --    4.96803   5.08920   5.08920   5.44823   5.44823
 Alpha virt. eigenvalues --    5.45206   5.66175   6.29557   6.29557   6.89853
 Alpha virt. eigenvalues --    6.89854   7.15474   7.15474   8.12383  14.19787
 Alpha virt. eigenvalues --   14.19787  14.68709  14.68709  14.92678  25.00744
 Alpha virt. eigenvalues --   50.41652
          Condensed to atoms (all electrons):
[...]
                with respect to dipole field.
          Differentiating once with respect to nuclear coordinates.
          Using symmetry in CPHF.
          Requested convergence is 1.0D-08 RMS, and 1.0D-07 maximum.
          Secondary convergence is 1.0D-12 RMS, and 1.0D-12 maximum.
          NewPWx=T KeepS1=F KeepF1=F KeepIn=T MapXYZ=F SortEE=F KeepMc=T.
          604 words used for storage of precomputed grid.
 Keep R1 ints in memory in symmetry-blocked form, NReq=26611321.
 FoFCou: FMM=F IPFlag=           0 FMFlag=           0 FMFlg1=           0
         NFxFlg=           0 DoJE=F BraDBF=F KetDBF=F FulRan=T
         wScrn=  0.000000 ICntrl=       600 IOpCl=  0 I1Cent=           0 NGrid=           0
         NMat0=    1 NMatS0=   3081 NMatT0=    0 NMatD0=    1 NMtDS0=    0 NMtDT0=    0
 Petite list used in FoFCou.
          MDV=    6291456000 using IRadAn=       1.
          Solving linear equations simultaneously, MaxMat=       0.
          There are     9 degrees of freedom in the 1st order CPHF.  IDoFFX=6 NUNeed=     3.
      6 vectors produced by pass  0 Test12= 5.52D-15 1.11D-08 XBig12= 1.21D+01 2.06D+00.
 AX will form     6 AO Fock derivatives at one time.
      6 vectors produced by pass  1 Test12= 5.52D-15 1.11D-08 XBig12= 9.77D+00 1.78D+00.
      6 vectors produced by pass  2 Test12= 5.52D-15 1.11D-08 XBig12= 1.17D-01 1.35D-01.
      6 vectors produced by pass  3 Test12= 5.52D-15 1.11D-08 XBig12= 1.09D-03 1.13D-02.
      6 vectors produced by pass  4 Test12= 5.52D-15 1.11D-08 XBig12= 2.17D-06 3.51D-04.
      6 vectors produced by pass  5 Test12= 5.52D-15 1.11D-08 XBig12= 4.82D-09 1.99D-05.
      4 vectors produced by pass  6 Test12= 5.52D-15 1.11D-08 XBig12= 5.64D-12 9.25D-07.
      1 vectors produced by pass  7 Test12= 5.52D-15 1.11D-08 XBig12= 5.75D-15 1.94D-08.
 InvSVY:  IOpt=1 It=  1 EMax= 4.44D-16
 Solved reduced A of dimension    41 with     6 vectors.
 FullF1:  Do perturbations      1 to       3.
 Isotropic polarizability for W=    0.000000       13.03 Bohr**3.
 End of Minotr F.D. properties file   721 does not exist.
 End of Minotr F.D. properties file   722 does not exist.
 End of Minotr F.D. properties file   788 does not exist.
 Leave Link 1002 at Tue Jan 26 00:25:00 2021, MaxMem=  6291456000 cpu:              13.0 elap:               0.6
 (Enter /home/orgChemistry/bin/gaussian16-C.01/g16/l601.exe)
 Copying SCF densities to generalized density rwf, IOpCl= 0 IROHF=0.

 **********************************************************************

            Population analysis using the SCF Density.

 **********************************************************************

 Orbital symmetries:
       Occupied  (SG) (SG) (SG) (SG) (PI) (PI) (SG)
       Virtual   (PI) (PI) (SG) (SG) (PI) (PI) (SG) (PI) (PI) (SG)
                 (DLTA) (DLTA) (SG) (PI) (PI) (SG) (PI) (PI) (SG)
                 (SG) (DLTA) (DLTA) (PI) (PI) (SG) (PI) (PI) (SG)
                 (DLTA) (DLTA) (PI) (PI) (SG) (SG) (PI) (PI) (PHI)
                 (PHI) (DLTA) (DLTA) (PI) (PI) (SG) (DLTA) (DLTA)
                 (SG) (PI) (PI) (SG) (PHI) (PHI) (PI) (PI) (DLTA)
                 (DLTA) (SG) (SG) (PI) (PI) (DLTA) (DLTA) (PI)
                 (PI) (SG) (DLTA) (DLTA) (PI) (PI) (SG) (SG) (SG)
 The electronic state is 1-SG.
 Alpha  occ. eigenvalues --  -19.23701 -10.29320  -1.17537  -0.58515  -0.48663
 Alpha  occ. eigenvalues --   -0.48663  -0.38688
 Alpha virt. eigenvalues --   -0.04022  -0.04022   0.02510   0.05857   0.06946
 Alpha virt. eigenvalues --    0.06946   0.17317   0.20118   0.20118   0.23575
 Alpha virt. eigenvalues --    0.31857   0.31857   0.38512   0.46582   0.46582
 Alpha virt. eigenvalues --    0.51259   0.53562   0.53562   0.73591   0.77360
 Alpha virt. eigenvalues --    0.84067   0.84067   0.95726   0.95726   1.03628
 Alpha virt. eigenvalues --    1.22156   1.22156   1.39541   1.54857   1.54857
 Alpha virt. eigenvalues --    1.82065   1.82065   1.82511   2.12271   2.72001
 Alpha virt. eigenvalues --    2.72001   2.76009   2.76009   2.82313   2.82313
 Alpha virt. eigenvalues --    2.94973   2.94973   3.15484   3.41118   3.41118
 Alpha virt. eigenvalues --    3.60324   4.12541   4.12541   4.19212   4.96803
 Alpha virt. eigenvalues --    4.96803   5.08920   5.08920   5.44823   5.44823
 Alpha virt. eigenvalues --    5.45206   5.66175   6.29557   6.29557   6.89853
 Alpha virt. eigenvalues --    6.89854   7.15474   7.15474   8.12383  14.19787
 Alpha virt. eigenvalues --   14.19787  14.68709  14.68709  14.92678  25.00744
 Alpha virt. eigenvalues --   50.41652
          Condensed to atoms (all electrons):
               1          2
     1  O    8.025776   0.189069
     2  C    0.189069   5.596085
 Mulliken charges:
               1
     1  O   -0.214845
     2  C    0.214845
 Sum of Mulliken charges =   0.00000
 Mulliken charges with hydrogens summed into heavy atoms:
               1
     1  O   -0.214845
     2  C    0.214845
 APT charges:
               1
     1  O   -0.237925
     2  C    0.237925
 Sum of APT charges =   0.00000
 APT charges with hydrogens summed into heavy atoms:
               1
     1  O   -0.237925
     2  C    0.237925
 Electronic spatial extent (au):  <R**2>=             40.0149
 Charge=              0.0000 electrons
 Dipole moment (field-independent basis, Debye):
    X=              0.0000    Y=             -0.0000    Z=              0.0951  Tot=              0.0951
 Quadrupole moment (field-independent basis, Debye-Ang):
   XX=            -10.2996   YY=            -10.2996   ZZ=            -12.3967
   XY=             -0.0000   XZ=             -0.0000   YZ=             -0.0000
 Traceless Quadrupole moment (field-independent basis, Debye-Ang):
   XX=              0.6990   YY=              0.6990   ZZ=             -1.3980
   XY=             -0.0000   XZ=             -0.0000   YZ=             -0.0000
 Octapole moment (field-independent basis, Debye-Ang**2):
  XXX=             -0.0000  YYY=              0.0000  ZZZ=              6.3617  XYY=             -0.0000
  XXY=              0.0000  XXZ=              1.2539  XZZ=             -0.0000  YZZ=              0.0000
  YYZ=              1.2539  XYZ=             -0.0000
 Hexadecapole moment (field-independent basis, Debye-Ang**3):
 XXXX=             -9.6416 YYYY=             -9.6416 ZZZZ=            -37.7561 XXXY=             -0.0000
 XXXZ=              0.0000 YYYX=             -0.0000 YYYZ=             -0.0000 ZZZX=              0.0000
 ZZZY=             -0.0000 XXYY=             -3.2139 XXZZ=             -7.3219 YYZZ=             -7.3219
 XXYZ=             -0.0000 YYXZ=              0.0000 ZZXY=             -0.0000
 N-N= 2.258747647757D+01 E-N=-3.114718579351D+02  KE= 1.129707830837D+02
 Symmetry A1   KE= 1.047140025279D+02
 Symmetry A2   KE= 8.116379527252D-30
 Symmetry B1   KE= 4.128390277879D+00
 Symmetry B2   KE= 4.128390277879D+00
  Exact polarizability:      11.813      -0.000      11.813      -0.000       0.000      15.462
 Approx polarizability:      15.757      -0.000      15.757      -0.000       0.000      24.661
 No NMR shielding tensors so no spin-rotation constants.
 Leave Link  601 at Tue Jan 26 00:25:00 2021, MaxMem=  6291456000 cpu:               8.2 elap:               0.4
 (Enter /home/orgChemistry/bin/gaussian16-C.01/g16/l701.exe)
 ... and contract with generalized density number  0.
 Compute integral second derivatives.
 Leave Link  701 at Tue Jan 26 00:25:01 2021, MaxMem=  6291456000 cpu:               5.5 elap:               0.3
 (Enter /home/orgChemistry/bin/gaussian16-C.01/g16/l702.exe)
 L702 exits ... SP integral derivatives will be done elsewhere.
 Leave Link  702 at Tue Jan 26 00:25:01 2021, MaxMem=  6291456000 cpu:               0.5 elap:               0.1
 (Enter /home/orgChemistry/bin/gaussian16-C.01/g16/l703.exe)
 Integral derivatives from FoFJK, PRISM(SPDF).
 Compute integral second derivatives, UseDBF=F ICtDFT=           0.
 Calling FoFJK, ICntrl=    100127 FMM=F ISym2X=1 I1Cent= 0 IOpClX= 0 NMat=1 NMatS=1 NMatT=0.
 FoFJK:  IHMeth= 1 ICntrl=  100127 DoSepK=F KAlg= 0 I1Cent=           0 FoldK=F
 IRaf=         0 NMat=       1 IRICut=       1 DoRegI=T DoRafI=F ISym2E= 1 IDoP0=0 IntGTp=1.
 FoFCou: FMM=F IPFlag=           0 FMFlag=      100000 FMFlg1=         800
         NFxFlg=           0 DoJE=F BraDBF=F KetDBF=F FulRan=T
         wScrn=  0.000000 ICntrl=    100127 IOpCl=  0 I1Cent=           0 NGrid=           0
         NMat0=    1 NMatS0=      1 NMatT0=    0 NMatD0=    1 NMtDS0=    0 NMtDT0=    0
 Petite list used in FoFCou.
 Leave Link  703 at Tue Jan 26 00:25:02 2021, MaxMem=  6291456000 cpu:              23.7 elap:               1.0
 (Enter /home/orgChemistry/bin/gaussian16-C.01/g16/l716.exe)
 Dipole        = 4.14710449D-17-1.37689496D-16 3.74335767D-02
 Polarizability= 1.18125879D+01-2.72981743D-29 1.18125879D+01
                -2.83910441D-16 1.05717378D-15 1.54624899D+01
 Full mass-weighted force constant matrix:
 Low frequencies ---   -0.0012   -0.0012    0.0006   19.1154   19.1154 2216.4833
 Diagonal vibrational polarizability:
        0.0000000       0.0000000       0.4369514
 Harmonic frequencies (cm**-1), IR intensities (KM/Mole), Raman scattering
 activities (A**4/AMU), depolarization ratios for plane and unpolarized
 incident light, reduced masses (AMU), force constants (mDyne/A),
 and normal coordinates:
                      1
                     SG
 Frequencies --   2216.4833
 Red. masses --     13.4388
 Frc consts  --     38.8990
 IR Inten    --     79.7680
  Atom  AN      X      Y      Z
     1   8     0.00  -0.00  -0.60
     2   6    -0.00   0.00   0.80

 -------------------
 - Thermochemistry -
 -------------------
 Temperature   298.150 Kelvin.  Pressure   1.00000 Atm.
 Atom     1 has atomic number  8 and mass  15.99491
 Atom     2 has atomic number  6 and mass  12.00000
 Molecular mass:    27.99491 amu.
 Principal axes and moments of inertia in atomic units:
                           1         2         3
     Eigenvalues --    -0.00000  30.96215  30.96215
           X           -0.00000  -0.25937   0.96578
           Y            0.00000   0.96578   0.25937
           Z            1.00000  -0.00000   0.00000
 This molecule is a prolate symmetric top.
 Rotational symmetry number  1.
 Rotational temperature (Kelvin)      2.79741
 Rotational constant (GHZ):          58.288632
 Zero-point vibrational energy      13257.5 (Joules/Mol)
                                    3.16862 (Kcal/Mol)
 Vibrational temperatures:   3189.03
          (Kelvin)
 
 Zero-point correction=                           0.005050 (Hartree/Particle)
 Thermal correction to Energy=                    0.007410
 Thermal correction to Enthalpy=                  0.008354
 Thermal correction to Gibbs Free Energy=        -0.014067
 Sum of electronic and zero-point Energies=           -113.351743
 Sum of electronic and thermal Energies=              -113.349382
 Sum of electronic and thermal Enthalpies=            -113.348438
 Sum of electronic and thermal Free Energies=         -113.370859
 
                     E (Thermal)             CV                S
                      KCal/Mol        Cal/Mol-Kelvin    Cal/Mol-Kelvin
 Total                    4.650              4.973             47.189
 Electronic               0.000              0.000              0.000
 Translational            0.889              2.981             35.923
 Rotational               0.592              1.987             11.265
 Vibrational              3.169              0.005              0.001
                       Q            Log10(Q)             Ln(Q)
 Total Bot       0.295219D+07          6.470145         14.898058
 Total V=0       0.620527D+09          8.792761         20.246080
 Vib (Bot)       0.475766D-02         -2.322606         -5.347999
 Vib (V=0)       0.100002D+01          0.000010          0.000023
 Electronic      0.100000D+01          0.000000          0.000000
 Translational   0.582201D+07          6.765073         15.577155
 Rotational      0.106581D+03          2.027678          4.668902
 ***** Axes restored to original set *****
 -------------------------------------------------------------------
 Center     Atomic                   Forces (Hartrees/Bohr)
 Number     Number              X              Y              Z
 -------------------------------------------------------------------
      1        8           0.000159317    0.000122058    0.000006798
      2        6          -0.000159317   -0.000122058   -0.000006798
 -------------------------------------------------------------------
 Cartesian Forces:  Max     0.000159317 RMS     0.000115940
 Force constants in Cartesian coordinates: 
                1             2             3             4             5 
      1  0.802342D+00
      2  0.614628D+00  0.470982D+00
      3  0.342292D-01  0.262241D-01  0.155526D-02
      4 -0.802342D+00 -0.614628D+00 -0.342292D-01  0.802342D+00
      5 -0.614628D+00 -0.470982D+00 -0.262241D-01  0.614628D+00  0.470982D+00
      6 -0.342292D-01 -0.262241D-01 -0.155526D-02  0.342292D-01  0.262241D-01
                6 
      6  0.155526D-02
 FormGI is forming the generalized inverse of G from B-inverse, IUseBI=4.
 Force constants in internal coordinates: 
                1 
      1  0.127469D+01
 Leave Link  716 at Tue Jan 26 00:25:02 2021, MaxMem=  6291456000 cpu:               1.1 elap:               0.1
 (Enter /home/orgChemistry/bin/gaussian16-C.01/g16/l103.exe)

 GradGradGradGradGradGradGradGradGradGradGradGradGradGradGradGradGradGrad
 Berny optimization.
 Red2BG is reusing G-inverse.
 Internal  Forces:  Max     0.000200815 RMS     0.000200815
 Search for a local minimum.
 Step number   1 out of a maximum of    2
 All quantities printed in internal units (Hartrees-Bohrs-Radians)
 Second derivative matrix not updated -- analytic derivatives used.
 The second derivative matrix:
                          R1
           R1           1.27469
 ITU=  0
     Eigenvalues ---    1.27469
 Angle between quadratic step and forces=   0.00 degrees.
 Linear search not attempted -- first point.
 Iteration  1 RMS(Cart)=  0.00011140 RMS(Int)=  0.00000000
 Iteration  2 RMS(Cart)=  0.00000000 RMS(Int)=  0.00000000
 ITry= 1 IFail=0 DXMaxC= 6.25D-05 DCOld= 1.00D+10 DXMaxT= 3.00D-01 DXLimC= 3.00D+00 Rises=F
 ClnCor:  largest displacement from symmetrization is 8.94D-16 for atom     1.
 Variable       Old X    -DE/DX   Delta X   Delta X   Delta X     New X
                                 (Linear)    (Quad)   (Total)
    R1        2.12507  -0.00020   0.00000  -0.00016  -0.00016   2.12491
         Item               Value     Threshold  Converged?
 Maximum Force            0.000201     0.000450     YES
 RMS     Force            0.000201     0.000300     YES
 Maximum Displacement     0.000062     0.001800     YES
 RMS     Displacement     0.000111     0.001200     YES
 Predicted change in Energy=-1.581816D-08
 Optimization completed.
    -- Stationary point found.
                           ----------------------------
                           !   Optimized Parameters   !
                           ! (Angstroms and Degrees)  !
 --------------------------                            --------------------------
 ! Name  Definition              Value          Derivative Info.                !
 --------------------------------------------------------------------------------
 ! R1    R(1,2)                  1.1245         -DE/DX =   -0.0002              !
 --------------------------------------------------------------------------------
 GradGradGradGradGradGradGradGradGradGradGradGradGradGradGradGradGradGrad

 Leave Link  103 at Tue Jan 26 00:25:02 2021, MaxMem=  6291456000 cpu:               2.0 elap:               0.1
 (Enter /home/orgChemistry/bin/gaussian16-C.01/g16/l9999.exe)

 ----------------------------------------------------------------------

 Electric dipole moment (input orientation):
 (Debye = 10**-18 statcoulomb cm , SI units = C m)
                  (au)            (Debye)         (10**-30 SI)
   Tot        0.374336D-01      0.951467D-01      0.317375D+00
   x         -0.296982D-01     -0.754852D-01     -0.251791D+00
   y         -0.227527D-01     -0.578317D-01     -0.192906D+00
   z         -0.126712D-02     -0.322070D-02     -0.107431D-01

 Dipole polarizability, Alpha (input orientation).
 (esu units = cm**3 , SI units = C**2 m**2 J**-1)
 Alpha(0;0):
               (au)            (10**-24 esu)      (10**-40 SI)
   iso        0.130292D+02      0.193073D+01      0.214823D+01
   aniso      0.364990D+01      0.540860D+00      0.601788D+00
   xx         0.141099D+02      0.209087D+01      0.232641D+01
   yx         0.176004D+01      0.260810D+00      0.290191D+00
   yy         0.131610D+02      0.195026D+01      0.216996D+01
   zx         0.980181D-01      0.145248D-01      0.161610D-01
   zy         0.750949D-01      0.111279D-01      0.123815D-01
   zz         0.118168D+02      0.175106D+01      0.194832D+01

 ----------------------------------------------------------------------

 Dipole orientation:
     8         -4.08364869          5.43886524          2.76641763
     6         -4.08364869          5.43886524          0.64134624

 Electric dipole moment (dipole orientation):
 (Debye = 10**-18 statcoulomb cm , SI units = C m)
                  (au)            (Debye)         (10**-30 SI)
   Tot        0.374336D-01      0.951467D-01      0.317375D+00
   x          0.000000D+00      0.000000D+00      0.000000D+00
   y          0.000000D+00      0.000000D+00      0.000000D+00
   z          0.374336D-01      0.951467D-01      0.317375D+00

 Dipole polarizability, Alpha (dipole orientation).
 (esu units = cm**3 , SI units = C**2 m**2 J**-1)
 Alpha(0;0):
               (au)            (10**-24 esu)      (10**-40 SI)
   iso        0.130292D+02      0.193073D+01      0.214823D+01
   aniso      0.364990D+01      0.540860D+00      0.601788D+00
   xx         0.118126D+02      0.175044D+01      0.194763D+01
   yx         0.000000D+00      0.000000D+00      0.000000D+00
   yy         0.118126D+02      0.175044D+01      0.194763D+01
   zx         0.000000D+00      0.000000D+00      0.000000D+00
   zy         0.000000D+00      0.000000D+00      0.000000D+00
   zz         0.154625D+02      0.229130D+01      0.254942D+01

 ----------------------------------------------------------------------
 Unable to Open any file for archive entry.
 1\1\GINC-NODE2-014\Freq\RB3LYP\6-311++G(3df,3pd)\C1O1\RUTHM\26-Jan-202
 1\0\\#P Geom=AllCheck Guess=TCheck SCRF=Check GenChk RB3LYP/6-311++G(3
 df,3pd) Freq\\title\\0,1\O,-3.3510853832,1.9663400741,-0.014605612\C,-
 2.4589252897,2.649853157,0.0234599045\\Version=ES64L-G16RevC.01\State=
 1-SG\HF=-113.3567921\RMSD=3.030e-10\RMSF=1.159e-04\ZeroPoint=0.0050495
 \Thermal=0.0074102\ETot=-113.3493819\HTot=-113.3484377\GTot=-113.37085
 86\Dipole=-0.0296982,-0.0227527,-0.0012671\DipoleDeriv=-0.4649034,-0.3
 696703,-0.0205873,-0.3696703,-0.2656053,-0.0157726,-0.0205873,-0.01577
 26,0.0167329,0.4649034,0.3696703,0.0205873,0.3696703,0.2656053,0.01577
 26,0.0205873,0.0157726,-0.0167329\Polar=14.1098867,1.7600358,13.161009
 1,0.0980181,0.0750949,11.81677\Quadrupole=-0.4616234,-0.056295,0.51791
 84,-0.7518277,-0.04187,-0.032078\PG=C*V [C*(C1O1)]\NImag=0\\0.80234227
 ,0.61462807,0.47098151,0.03422924,0.02622414,0.00155526,-0.80234227,-0
 .61462807,-0.03422924,0.80234227,-0.61462807,-0.47098151,-0.02622414,0
 .61462807,0.47098151,-0.03422924,-0.02622414,-0.00155526,0.03422924,0.
 02622414,0.00155526\\-0.00015932,-0.00012206,-0.00000680,0.00015932,0.
 00012206,0.00000680\\\@
 The archive entry for this job was punched.


 NO MATTER HOW THIN YOU SLICE IT, IT'S STILL BALONEY

                                   -- ALFRED E. SMITH
 Job cpu time:       0 days  0 hours  1 minutes 45.4 seconds.
 Elapsed time:       0 days  0 hours  0 minutes  5.7 seconds.
 File lengths (MBytes):  RWF=     15 Int=      0 D2E=      0 Chk=      2 Scr=      1
 Normal termination of Gaussian 16 at Tue Jan 26 00:25:02 2021.
