 --invoking executable--
/home/orgChemistry/bin/cfour_v21/bin/xjoda


   *************************************************************************
         <<<     CCCCCC     CCCCCC   |||     CCCCCC     CCCCCC   >>>
       <<<      CCC        CCC       |||    CCC        CCC         >>>
      <<<      CCC        CCC        |||   CCC        CCC            >>>
    <<<        CCC        CCC        |||   CCC        CCC              >>>
      <<<      CCC        CCC        |||   CCC        CCC            >>>
       <<<      CCC        CCC       |||    CCC        CCC         >>>
         <<<     CCCCCC     CCCCCC   |||     CCCCCC     CCCCCC   >>>
   *************************************************************************

     ****************************************************************
     * CFOUR Coupled-Cluster techniques for Computational Chemistry *
     ****************************************************************
 

   Department of Chemistry                Institut fuer Physikalische Chemie
   University of Florida                  Universitaet Mainz
   Gainesville, FL 32611, USA             D-55099 Mainz, Germany

   Department of Chemistry                Fakultaet fuer Chemie und Biowiss.
   Johns Hopkins University               Karlsruher Institut fuer Technologie
   Baltimore, MD 21218, USA               D-76131 Karlsruhe, Germany

   Department of Chemistry                Department of Physical Chemistry
   Southern Methodist University          Eotvos Lorand University
   Dallas, TX 75275, USA                  H-1053 Budapest, Hungary

 
                       Version 2.1
 
                     node2-090                                         
                     Wed Jan 27 20:02:21 CET 2021                      
                     integer*8 version is running
 
********************************************************************************
*                          Input from ZMAT file                                *
********************************************************************************
title                                                                           
C                                                                               
N 1 R12*                                                                        
H 1 R13* 2 A213*                                                                
H 1 R14* 2 A214* 3 D3214*                                                       
O 2 R25* 1 A125* 3 D3125*                                                       
H 5 R56* 2 A256* 1 D1256*                                                       
                                                                                
R12           =        1.26421646                                               
R13           =        1.08689766                                               
A213          =        122.95327703                                             
R14           =        1.08094451                                               
A214          =        116.62629149                                             
D3214         =        180.00000000                                             
R25           =        1.39850541                                               
A125          =        111.74549108                                             
D3125         =        0.00000000                                               
R56           =        0.96194231                                               
A256          =        103.14489232                                             
D1256         =        180.00000000                                             
                                                                                
*CFOUR(CALC=CCSD(T),BASIS=cc-pVTZ,FROZEN_CORE=1                                 
       CONVERGENCE=8                                                            
       MEMORY_SIZE=5000,MEM_UNIT=MB,ABCDTYPE=AOBASIS,CC_PROG=ECC                
       MULTIPLICITY=1,CHARGE=0                                                  
       SCF_CONV=8,CC_CONV=10)                                                   
                                                                                
********************************************************************************
    -------------------------------------------------------------------
                    CFOUR Control Parameters 
    -------------------------------------------------------------------
        External           Internal           Value            Units
          Name               Name
    -------------------------------------------------------------------
       ABCDTYPE             IABCDT         AOBASIS     [  2]    ***   
       ANHARMONIC           IANHAR         OFF         [  0]    ***   
       ANH_ALGORIT          IANALG         STANDARD    [  0]    ***   
       ANH_DERIVAT          IANDER         SECOND      [  1]    ***   
       ANH_MODE             ANHMOD         VIBRATION   [  0]    ***   
       ANH_STEPSIZ          ICUBST             50000          x 10-6  
       ANH_SYMMETR          IANHSM         ABELIAN     [  0]    ***   
       AO_LADDERS           IAOLAD         SINGLEPASS  [  1]    ***   
       AV_SCF               IAVSCF         OFF         [  0]    ***   
       BASIS                IBASIS         PVTZ        [ 14]    ***   
       BOTHVECTORS          BOTHVC         OFF         [  0]    ***   
       BOX_POTENT           IPIAB          OFF         [  0]    ***   
       BREIT                IBREIT         OFF         [  0]    ***   
       BRUCK_CONV           IBRTOL          10D-  4             ***   
       BRUECKNER            IBRKNR         OFF         [  0]    ***   
       BUFFERSIZE           IBUFFS              4096            ***   
       CACHE_RECS           ICHREC             10               ***   
       CALCLEVEL            ICLLVL         CCSD(T)     [ 22]    ***   
       CCORBOPT             ICCORB         OFF         [  0]  x 0.01  
       CC_CONV              ICCCNV          10D- 10             ***   
       CC_EXPORDER          ICCEOR              5               ***   
       CC_EXTRAPOL          ICCEXT         DIIS        [  1]    ***   
       CC_GUESS             ICCGES         MP2         [  0]    ***   
       CC_MAXCYC            ICCCYC            100              cycles 
       CC_PROGRAM           ICCPRO         ECC         [  1]    ***   
       CHARGE               ICHRGE              0               ***   
       CHOLESKY             ICHOLE         OFF         [  0]    ***   
       CIS_CONV             ICISTL              5               ***   
       COMM_SIZE            IPSIZE            ***               ***   
       CONSTANT             ICONST         OLD         [  1]    ***   
       CONTINUUM            ICONTU         NONE        [  0]    ***   
       CONTRACTION          ICNTYP         GENERAL     [  1]    ***   
       COORDINATES          ICOORD         INTERNAL    [  0]    ***   
       CPHF_CONVER          ICPHFT          10D- 16             ***   
       CPHF_MAXCYC          ICPHFC             64              cycles 
       CUBIC                ICUBIC         OFF         [  0]    ***   
       CURVILINEAR          ICURVY         OFF         [  0]    ***   
       DBOC                 IDBOC          OFF         [  0]    ***   
       DCT                  IDCT           OFF         [  0]    ***   
       DERIV_LEV            IDRLVL         FIRST       [  1]    ***   
       DEVMEM_SIZE          IDVMEM         *********           MByte  
       DIAG_MRCC            IEOMST          10D-  0             ***   
       DIFF_TYPE            IDIFTY         RELAXED     [  0]    ***   
       DIRECT               IDIRCT         OFF         [  0]    ***   
       DROPMO               IDRPMO      NONE         
       ECP                  IECP           OFF         [  0]    ***   
       EIGENVECTOR          IVEC                1               ***   
       EL_ANHARM            IELANH         OFF         [  0]    ***   
       EOMFOLLOW            IEOMSR         ENERGY      [  0]    ***   
       EOMIP                IEOMIP         OFF         [  0]    ***   
       EOMLEVEL             HBARFM         SAME        [  0]    ***   
       EOM_MRCC             IMRCCE         NEW         [  1]    ***   
       EOM_NONIT            EOMNON         OFF         [  0]    ***   
       EOM_NSING            IEOMSI          10D-  0             ***   
       EOM_NSTATES          IMRCCD         DAVIDSON    [  0]    ***   
       EOM_NTRIP            IEOMTR          10D-  0             ***   
       EOM_ORDER            IEXORD         ENERGY      [  0]    ***   
       EOM_PROPSTA          IEOMST              0               ***   
       ESTATE_CONV          IEXTOL          10D-  5             ***   
       ESTATE_DIAG          IEXDIG         ITERATIVE   [  0]    ***   
       ESTATE_LOCK          IESLOC         ON          [  1]    ***   
       ESTATE_MAXC          IEXMXC             40               ***   
       ESTATE_PROP          IEXPRP         OFF         [  0]    ***   
       EVAL_HESS            IRECAL              0            # of cyc.
       EXCITATION           IEXCIT              0               ***   
       EXCITE               IEXCIT         NONE        [  0]    ***   
       EXTERN_POT           IEXPOT         OFF         [  0]    ***   
       FCGRADNEW            IFCGNW         OFF         [  0]    ***   
       FC_FIELD             IFINFC              0             x 10-6  
       FD_CALTYPE           IFDCAL         GRADONLY    [  0]    ***   
       FD_PROJECT           IFDPRJ         OFF         [  1]    ***   
       FD_STEPSIZE          IDISFD              0            10-4 bohr
       FD_USEGROUP          IFDGRP         FULL        [  0]    ***   
       FILE_RECSIZ          IFLREC              4096           words  
       FINITE_PERT          IFIPER              0             x 10-6  
       FIXGEOM              IFIXGM         OFF         [  0]    ***   
       FOCK                 IFOCK          AO          [  1]    ***   
       FREQ_ALGORI          IVIALG         STANDARD    [  0]    ***   
       FROZEN_CORE          IFROCO         ON          [  1]    ***   
       GAMMA_ABCD           IGABCD         DIRECT      [  1]    ***   
       GAMMA_ABCI           IGABCI         STORE       [  0]    ***   
       GENBAS_1             IGNBS1              0               ***   
       GENBAS_2             IGNBS2              0               ***   
       GENBAS_3             IGNBS3              0               ***   
       GENBAS_4             IGNBS4              0               ***   
       GEO_CONV             ICONTL              8              H/bohr 
       GEO_MAXCYC           IOPTCY             50               ***   
       GEO_MAXSTEP          IMXSTP            300            millibohr
       GEO_METHOD           INR            NR          [  0]    ***   
       GIAO                 IGIAO          OFF         [  1]    ***   
       GIMIC                IGIMIC         OFF         [  0]    ***   
       GRID                 IGRID          OFF         [  0]    ***   
       GRID_ALGO            IGALGO         SERIAL      [  0]    ***   
       GUESS                IGUESS         MOREAD      [  0]    ***   
       HBAR                 IHBAR          OFF         [  0]    ***   
       HESS_TYPE            IHESTP         SCF         [  0]    ***   
       HF2_FILE             IHF2Fl         USE         [  1]    ***   
       HFSTABILITY          ISTABL         OFF         [  0]    ***   
       INCORE               INCORE         OFF         [  0]    ***   
       INPUT_MRCC           IMRCC          ON          [  1]    ***   
       INTEGRALS            INTTYP         VMOL        [  1]    ***   
       JODA_PRINT           IJPRNT              0               ***   
       KEYWORD_OUT          IDMPKW         NO          [  0]    ***   
       LINDEP_TOL           ILINDP              8               ***   
       LINEQ_CONV           IZTACN          10D-  7           cycles  
       LINEQ_EXPOR          ILMAXD              5               ***   
       LINEQ_MAXCY          ILMAXC            100               ***   
       LINEQ_TYPE           ILTYPE         DIIS        [  1]    ***   
       LOCK_ORBOCC          ILOCOC         OFF         [  0]    ***   
       MEMORY_SIZE          IMEMSZ         625000000           words  
       MEM_UNIT             IMEMU          MB          [  2]    ***   
       MRCC                 IMRCCC         OFF         [  0]    ***   
       MULTIPLICTY          IMULTP              1               ***   
       NACOUPLING           IVCOUP         OFF         [  0]    ***   
       NEGEVAL              IDIE           ABORT       [  0]    ***   
       NEWNORM              INEWNO         OFF         [  0]    ***   
       NON-HF               INONHF         OFF         [  0]    ***   
       NTOP_TAMP            ITOPT2             15               ***   
       NUC_MODEL            INUCMO         POINT       [  0]    ***   
       OCCUPATION           IOCCU   ESTIMATED BY SCF 
       OPEN-SHELL           IOPEN          SPIN-ORBITAL[  0]    ***   
       OPTVIB               IOPTVB         OFF         [  0]    ***   
       ORBITALS             IORBTP         STANDARD    [  0]    ***   
       PARALLEL             IPARAL         ON          [  1]    ***   
       PARA_INT             IPINTS         ON          [  1]    ***   
       PARA_PRINT           IPPRIN              0               ***   
       PERT_ORB             IPTORB         CANONICAL   [  1]    ***   
       POINTS               IGRDFD              0               ***   
       PRINT                IPRNT               0               ***   
       PROPS                IPROPS         OFF         [  0]    ***   
       PROP_INTEGR          IINTYP         INTERNAL    [  0]    ***   
       PSI                  IPSI           OFF         [  0]    ***   
       QC_ALG               IQCALG         FLM         [  0]    ***   
       QC_LINALG            IQCLIN         TRIDIAG     [  2]    ***   
       QC_MAXCYC            IQCMAX          10D-100           cycles  
       QC_MAXSCFCY          IQCMSC          10D- 15           cycles  
       QC_RTRUST            IQCRTR          10D-  0           x 10-3  
       QC_SKIPSCF           IQCSKI         OFF         [  0]    ***   
       QC_START             IQCSTA          10D-  1             ***   
       QRHFGUESS            IQGUES         OFF         [  0]    ***   
       QUARTIC              IQUART         OFF         [  0]    ***   
       RAMAN_INT            IRAMIN         OFF         [  0]    ***   
       RAMAN_ORB            IRAMRE         UNRELAXED   [  0]    ***   
       RDO                  IRDOFM         ON          [  1]    ***   
       REDUCE_REPR          REDREP         Ir          [  0]    ***   
       REFERENCE            IREFNC         RHF         [  0]    ***   
       RELATIVIST           IRELAT         OFF         [  0]    ***   
       RELAX_DENS           IRDENS         ON          [  1]    ***   
       RESET_FLAGS          IRESET         OFF         [  0]    ***   
       RESTART_CC           ICCRES         OFF         [  0]    ***   
       ROT_EVEC             ROTVEC              0               ***   
       SAVE_INTS            ISVINT         OFF         [  0]    ***   
       SCALE_ON             ISTCRT              0               ***   
       SCF_CONV             ISCFCV          10D-  8             ***   
       SCF_DAMPING          IDAMP               0             x 10-3  
       SCF_EXPORDE          IRPPOR              6               ***   
       SCF_EXPSTAR          IRPPLS              8               ***   
       SCF_EXTRAPO          IRPP           ON          [  1]    ***   
       SCF_MAXCYC           ISCFCY            150              cycles 
       SCF_NOSTOP           ISCFST         OFF         [  0]    ***   
       SCF_PRINT            ISCFPR              0               ***   
       SCF_PROG             ISCFPR         SCF         [  0]    ***   
       SD_FIELD             IFINSD              0             x 10-6  
       SOPERT               IPERSO         OFF         [  0]    ***   
       SPHERICAL            IDFGHI         ON          [  1]    ***   
       SPINORBIT            ISOCAL         OFF         [  0]    ***   
       SPINROTATIO          ISRCON         OFF         [  0]    ***   
       SPIN_FLIP            ISPFLP         OFF         [  0]    ***   
       SPIN_ORBIT           ISPORB         OFF         [  0]    ***   
       SPIN_SCAL            ISCSMP         OFF         [  0]    ***   
       STEEPSCALE           ISTPSC              1000          x 10-3  
       SUBGROUP             ISUBGP         DEFAULT     [  0]    ***   
       SUBGRPAXIS           ISBXYZ         X           [  0]    ***   
       SYMMETRY             ISYM           ON          [  0]    ***   
       SYM_CHECK            ISYMCK         OVERRIDE    [  1]    ***   
       T3_EXTRAPOL          IT3EXT         OFF         [  0]    ***   
       T4_EXTRAPOL          IT4EXP         OFF         [  0]    ***   
       TAMP_SUM             IEVERY              5               ***   
       TESTSUITE            ITESTS         OFF         [  0]    ***   
       THERMOCH             ITHERM         OFF         [  0]    ***   
       TOL_CHOLESK          ITOLCH          10D-  4             ***   
       TRANGRAD             IRESRM         OFF         [  0]    ***   
       TRANS_INV            ITRAIN         USE         [  0]    ***   
       TREAT_PERT           ITREAT         SIMULTANEOUS[  0]    ***   
       TRIP_ALGORI          ITRALG         NORMAL      [  0]    ***   
       UIJ_THRESHO          IUIJTH              1               ***   
       UNITS                IUNITS         ANGSTROM    [  0]    ***   
       UNOS                 IUNOS          OFF         [  0]    ***   
       UPDATE_HESS          IHUPDT         ON          [  1]    ***   
       VIBPHASE             ISETPH         STANDARD    [  0]    ***   
       VIBRATION            IVIB           NO          [  0]    ***   
       VIB_ALGORIT          IGEALG         STANDARD    [  0]    ***   
       VNATORB              IVNORB         OFF         [  0]    ***   
       VTRAN                IVTRAN         PARTIAL     [  2]    ***   
       XFIELD               IXEFLD              0             x 10-6  
       XFORM_TOL            IXFTOL          10D- 11             ***   
       YFIELD               IYEFLD              0             x 10-6  
       ZFIELD               IZEFLD              0             x 10-6  
       ZSCALE_EXP           IZEXPS         OFF         [  0]    ***   
    -------------------------------------------------------------------
   6 entries found in Z-matrix 
   Job Title : title                                                                           
   There are 12 unique internal coordinates.
   Of these, 12 will be optimized.
   User supplied Z-matrix: 
--------------------------------------------------------------------------------
       SYMBOL    BOND      LENGTH    ANGLE     ANGLE     DIHED     ANGLE
                  TO      (ANGST)    WRT      (DEG)      WRT      (DEG)
--------------------------------------------------------------------------------
        C    
        N          1         R12  
        H          1         R13        2        A213 
        H          1         R14        2        A214       3        D3214
        O          2         R25        1        A125       3        D3125
        H          5         R56        2        A256       1        D1256
                  *Initial values for internal coordinates* 
                      Name             Value
                        R12             1.2642164600
                        R13             1.0868976600
                        A213          122.9532770300
                        R14             1.0809445100
                        A214          116.6262914900
                        D3214         180.0000000000
                        R25             1.3985054100
                        A125          111.7454910800
                        D3125           0.0000000000
                        R56             0.9619423100
                        A256          103.1448923200
                        D1256         180.0000000000
--------------------------------------------------------------------------------
  filter applied 
  filter applied 
   Rotational constants (in cm-1): 
          0.3380985226             0.3951987246             2.3400285837
   Rotational constants (in MHz): 
      10135.9401329470         11847.7613651196         70152.3019164112
********************************************************************************
   The full molecular point group is C s .
   The largest Abelian subgroup of the full molecular point group is C s .
   The computational point group is C s .
********************************************************************************
--------------------------------------------------------------------------------
   Analysis of internal coordinates specified by Z-matrix 
--------------------------------------------------------------------------------
   *The nuclear repulsion energy is   70.902892953739354 a.u.
  *WARNING* Parameter D3214[  6] cannot have a nonzero derivative,
    but is being optimized.  Reconstruction of Z-matrix recommended.
  *WARNING* Parameter D3125[  9] cannot have a nonzero derivative,
    but is being optimized.  Reconstruction of Z-matrix recommended.
  *WARNING* Parameter D1256[ 12] cannot have a nonzero derivative,
    but is being optimized.  Reconstruction of Z-matrix recommended.
   *There are   9 degrees of freedom within the tot. symm. molecular subspace.
   *Z-matrix requests optimization of  12 coordinates.
   *The following   9 parameters can have non-zero 
    derivatives within the totally symmetric subspace:
             A214 [ 5]  A256 [11]  A213 [ 3]  R13  [ 2]  R14  [ 4]  A125 [ 8]
             R56  [10]  R25  [ 7]  R12  [ 1]
   *The following  12 parameters are to be optimized:
             R12  [ 1]  R13  [ 2]  A213 [ 3]  R14  [ 4]  A214 [ 5]  D3214[ 6]
             R25  [ 7]  A125 [ 8]  D3125[ 9]  R56  [10]  A256 [11]  D1256[12]

--------------------------------------------------------------------------------


 ----------------------------------------------------------------
         Coordinates used in calculation (QCOMP) 
 ----------------------------------------------------------------
 Z-matrix   Atomic            Coordinates (in bohr)
  Symbol    Number           X              Y              Z
 ----------------------------------------------------------------
     C         6        -2.16566567     0.43946383     0.00000000
     N         7        -0.23378225    -0.96597530    -0.00000000
     H         1        -2.05521767     2.49043141     0.00000000
     H         1        -3.98021404    -0.49861645    -0.00000000
     O         8         2.00207026     0.44303751     0.00000000
     H         1         3.29558634    -0.83416322    -0.00000000
 ----------------------------------------------------------------
 
   Interatomic distance matrix (Angstroms) 
 
                 C             N             H             H             O    
                [ 1]        [ 2]        [ 3]        [ 4]        [ 5]
  C    [ 1]     0.00000
  N    [ 2]     1.26422     0.00000
  H    [ 3]     1.08690     2.06748     0.00000
  H    [ 4]     1.08094     1.99789     1.88137     0.00000
  O    [ 5]     2.20547     1.39851     2.40490     3.20467     0.00000
  H    [ 6]     2.96752     1.86896     3.33357     3.85428     0.96194
 
                 H    
                [ 6]
  H    [ 6]     0.00000
 rotcon2
   Rotational constants (in cm-1): 
          2.3400285837             0.3951987246             0.3380985226
   Rotational constants (in MHz): 
      70152.3019164114         11847.7613651196         10135.9401329470
  There are   3 frozen-core orbitals.
  There are  132 basis functions.
 @CHECKOUT-I, Total execution time (CPU/WALL):        0.11/       0.26 seconds.
--executable xjoda finished with status     0 in        0.27 seconds (walltime).
 --invoking executable--
/home/orgChemistry/bin/cfour_v21/bin/xvmol
 SERIAL VERSION OF MOLECULE STARTED
********************************************************************************
                    INPUT FROM MOL FILE
********************************************************************************
INTGRL        1    0    1    0    0    0    0    0    0                         
         *** CFOUR Program System (Release V0.1) ***                            
title                                                                           
    6    1 Z          0.10E-08              0    0                              
   9999.00      3.00                                                            
          6.00000000    1    4    1    1    1    1                              
C #1  -2.165665667319787   0.439463831777667   0.000000000000000                
   10    4                                                                      
   8236.00000000000       5.310000000000000E-004 -1.130000000000000E-004        
  0.000000000000000E+000  0.000000000000000E+000                                
   1235.00000000000       4.108000000000000E-003 -8.780000000000000E-004        
  0.000000000000000E+000  0.000000000000000E+000                                
   280.800000000000       2.108700000000000E-002 -4.540000000000000E-003        
  0.000000000000000E+000  0.000000000000000E+000                                
   79.2700000000000       8.185300000000000E-002 -1.813300000000000E-002        
  0.000000000000000E+000  0.000000000000000E+000                                
   25.5900000000000       0.234817000000000      -5.576000000000000E-002        
  0.000000000000000E+000  0.000000000000000E+000                                
   8.99700000000000       0.434401000000000      -0.126895000000000             
  0.000000000000000E+000  0.000000000000000E+000                                
   3.31900000000000       0.346129000000000      -0.170352000000000             
  0.000000000000000E+000  0.000000000000000E+000                                
  0.905900000000000       3.937800000000000E-002  0.140382000000000             
   1.00000000000000       0.000000000000000E+000                                
  0.364300000000000      -8.983000000000000E-003  0.598684000000000             
  0.000000000000000E+000  0.000000000000000E+000                                
  0.128500000000000       2.385000000000000E-003  0.395389000000000             
  0.000000000000000E+000   1.00000000000000                                     
    5    3                                                                      
   18.7100000000000       1.403100000000000E-002  0.000000000000000E+000        
  0.000000000000000E+000                                                        
   4.13300000000000       8.686600000000000E-002  0.000000000000000E+000        
  0.000000000000000E+000                                                        
   1.20000000000000       0.290216000000000       0.000000000000000E+000        
  0.000000000000000E+000                                                        
  0.382700000000000       0.501008000000000        1.00000000000000             
  0.000000000000000E+000                                                        
  0.120900000000000       0.343406000000000       0.000000000000000E+000        
   1.00000000000000                                                             
    2    2                                                                      
   1.09700000000000        1.00000000000000       0.000000000000000E+000        
  0.318000000000000       0.000000000000000E+000   1.00000000000000             
    1    1                                                                      
  0.761000000000000        1.00000000000000                                     
          7.00000000    1    4    1    1    1    1                              
N #2  -0.233782253503959  -0.965975298510790  -0.000000000000001                
   10    4                                                                      
   11420.0000000000       5.230000000000000E-004 -1.150000000000000E-004        
  0.000000000000000E+000  0.000000000000000E+000                                
   1712.00000000000       4.045000000000000E-003 -8.950000000000000E-004        
  0.000000000000000E+000  0.000000000000000E+000                                
   389.300000000000       2.077500000000000E-002 -4.624000000000000E-003        
  0.000000000000000E+000  0.000000000000000E+000                                
   110.000000000000       8.072699999999999E-002 -1.852800000000000E-002        
  0.000000000000000E+000  0.000000000000000E+000                                
   35.5700000000000       0.233074000000000      -5.733900000000000E-002        
  0.000000000000000E+000  0.000000000000000E+000                                
   12.5400000000000       0.433501000000000      -0.132076000000000             
  0.000000000000000E+000  0.000000000000000E+000                                
   4.64400000000000       0.347472000000000      -0.172510000000000             
  0.000000000000000E+000  0.000000000000000E+000                                
   1.29300000000000       4.126200000000000E-002  0.151814000000000             
   1.00000000000000       0.000000000000000E+000                                
  0.511800000000000      -8.508000000000000E-003  0.599944000000000             
  0.000000000000000E+000  0.000000000000000E+000                                
  0.178700000000000       2.384000000000000E-003  0.387462000000000             
  0.000000000000000E+000   1.00000000000000                                     
    5    3                                                                      
   26.6300000000000       1.467000000000000E-002  0.000000000000000E+000        
  0.000000000000000E+000                                                        
   5.94800000000000       9.176400000000000E-002  0.000000000000000E+000        
  0.000000000000000E+000                                                        
   1.74200000000000       0.298683000000000       0.000000000000000E+000        
  0.000000000000000E+000                                                        
  0.555000000000000       0.498487000000000        1.00000000000000             
  0.000000000000000E+000                                                        
  0.172500000000000       0.337023000000000       0.000000000000000E+000        
   1.00000000000000                                                             
    2    2                                                                      
   1.65400000000000        1.00000000000000       0.000000000000000E+000        
  0.469000000000000       0.000000000000000E+000   1.00000000000000             
    1    1                                                                      
   1.09300000000000        1.00000000000000                                     
          1.00000000    1    3    1    1    1                                   
H #3  -2.055217673196119   2.490431414576371   0.000000000000002                
    5    3                                                                      
   33.8700000000000       6.068000000000000E-003  0.000000000000000E+000        
  0.000000000000000E+000                                                        
   5.09500000000000       4.530800000000000E-002  0.000000000000000E+000        
  0.000000000000000E+000                                                        
   1.15900000000000       0.202822000000000       0.000000000000000E+000        
  0.000000000000000E+000                                                        
  0.325800000000000       0.503903000000000        1.00000000000000             
  0.000000000000000E+000                                                        
  0.102700000000000       0.383421000000000       0.000000000000000E+000        
   1.00000000000000                                                             
    2    2                                                                      
   1.40700000000000        1.00000000000000       0.000000000000000E+000        
  0.388000000000000       0.000000000000000E+000   1.00000000000000             
    1    1                                                                      
   1.05700000000000        1.00000000000000                                     
          1.00000000    1    3    1    1    1                                   
H #4  -3.980214044052190  -0.498616449569521  -0.000000000000001                
    5    3                                                                      
   33.8700000000000       6.068000000000000E-003  0.000000000000000E+000        
  0.000000000000000E+000                                                        
   5.09500000000000       4.530800000000000E-002  0.000000000000000E+000        
  0.000000000000000E+000                                                        
   1.15900000000000       0.202822000000000       0.000000000000000E+000        
  0.000000000000000E+000                                                        
  0.325800000000000       0.503903000000000        1.00000000000000             
  0.000000000000000E+000                                                        
  0.102700000000000       0.383421000000000       0.000000000000000E+000        
   1.00000000000000                                                             
    2    2                                                                      
   1.40700000000000        1.00000000000000       0.000000000000000E+000        
  0.388000000000000       0.000000000000000E+000   1.00000000000000             
    1    1                                                                      
   1.05700000000000        1.00000000000000                                     
          8.00000000    1    4    1    1    1    1                              
O #5   2.002070264760222   0.443037512817147   0.000000000000001                
   10    4                                                                      
   15330.0000000000       5.080000000000000E-004 -1.150000000000000E-004        
  0.000000000000000E+000  0.000000000000000E+000                                
   2299.00000000000       3.929000000000000E-003 -8.950000000000000E-004        
  0.000000000000000E+000  0.000000000000000E+000                                
   522.400000000000       2.024300000000000E-002 -4.636000000000000E-003        
  0.000000000000000E+000  0.000000000000000E+000                                
   147.300000000000       7.918100000000000E-002 -1.872400000000000E-002        
  0.000000000000000E+000  0.000000000000000E+000                                
   47.5500000000000       0.230687000000000      -5.846300000000000E-002        
  0.000000000000000E+000  0.000000000000000E+000                                
   16.7600000000000       0.433118000000000      -0.136463000000000             
  0.000000000000000E+000  0.000000000000000E+000                                
   6.20700000000000       0.350260000000000      -0.175740000000000             
  0.000000000000000E+000  0.000000000000000E+000                                
   1.75200000000000       4.272800000000000E-002  0.160934000000000             
   1.00000000000000       0.000000000000000E+000                                
  0.688200000000000      -8.154000000000000E-003  0.603418000000000             
  0.000000000000000E+000  0.000000000000000E+000                                
  0.238400000000000       2.381000000000000E-003  0.378765000000000             
  0.000000000000000E+000   1.00000000000000                                     
    5    3                                                                      
   34.4600000000000       1.592800000000000E-002  0.000000000000000E+000        
  0.000000000000000E+000                                                        
   7.74900000000000       9.974000000000000E-002  0.000000000000000E+000        
  0.000000000000000E+000                                                        
   2.28000000000000       0.310492000000000       0.000000000000000E+000        
  0.000000000000000E+000                                                        
  0.715600000000000       0.491026000000000        1.00000000000000             
  0.000000000000000E+000                                                        
  0.214000000000000       0.336337000000000       0.000000000000000E+000        
   1.00000000000000                                                             
    2    2                                                                      
   2.31400000000000        1.00000000000000       0.000000000000000E+000        
  0.645000000000000       0.000000000000000E+000   1.00000000000000             
    1    1                                                                      
   1.42800000000000        1.00000000000000                                     
          1.00000000    1    3    1    1    1                                   
H #6   3.295586339133111  -0.834163218023973  -0.000000000000000                
    5    3                                                                      
   33.8700000000000       6.068000000000000E-003  0.000000000000000E+000        
  0.000000000000000E+000                                                        
   5.09500000000000       4.530800000000000E-002  0.000000000000000E+000        
  0.000000000000000E+000                                                        
   1.15900000000000       0.202822000000000       0.000000000000000E+000        
  0.000000000000000E+000                                                        
  0.325800000000000       0.503903000000000        1.00000000000000             
  0.000000000000000E+000                                                        
  0.102700000000000       0.383421000000000       0.000000000000000E+000        
   1.00000000000000                                                             
    2    2                                                                      
   1.40700000000000        1.00000000000000       0.000000000000000E+000        
  0.388000000000000       0.000000000000000E+000   1.00000000000000             
    1    1                                                                      
   1.05700000000000        1.00000000000000                                     
FINISH                                                                          
 
********************************************************************************
 ONE- AND TWO-ELECTRON INTEGRALS OVER SYMMETRY-ADAPTED AOS ARE CALCULATED.

  SPHERICAL HARMONICS ARE USED.
  
  INTEGRALS LESS THAN  0.10E-13 ARE NEGLECTED.

  NUCLEAR REPULSION ENERGY :   70.9028929537 A.U.
  @MOLECU-I, ONE ELECTRON INTEGRALS (CPU/WALL):        0.04/       0.05 SECONDS.
  @TWOEL-I,    8650667 INTEGRALS OF SYMMETRY TYPE  I I I I
  @TWOEL-I,    6952336 INTEGRALS OF SYMMETRY TYPE  I J I J
  @TWOEL-I,    3611750 INTEGRALS OF SYMMETRY TYPE  I I J J
  @TWOEL-I, TOTAL NUMBER OF 2-E INTEGRALS   19214753.
  @MOLECU-I, TWO ELECTRON INTEGRALS (CPU/WALL):       10.95/      11.64 SECONDS.
 @CHECKOUT-I, Total execution time (CPU/WALL):       11.00/      11.73 seconds.

Running with 24 threads/proc

--executable xvmol finished with status     0 in       11.74 seconds (walltime).
 --invoking executable--
/home/orgChemistry/bin/cfour_v21/bin/xvmol2ja
 @GETMEM-I,  Allocated    4768 MB of main memory.
 @CHECKOUT-I, Total execution time (CPU/WALL):        0.01/       0.02 seconds.
--executable xvmol2ja finished with status     0 in        0.03 seconds (walltime).
 --invoking executable--
/home/orgChemistry/bin/cfour_v21/bin/xvscf
  There are  132 functions in the AO basis.

  There are 2 irreducible representations.

       Irrep        # of functions
         1                 90
         2                 42


  Parameters for SCF calculation: 
        SCF reference function:  RHF  
  Maximum number of iterations:  150
     Full symmetry point group: C s 
     Computational point group: C s 
        Initial density matrix: MOREAD                 
     SCF convergence tolerance: 10**(- 8)
  DIIS convergence acceleration:  ON
          Latest start for DIIS:   8
                     DIIS order:   6

  Memory information:     834884 words required.
  Fock matrices are constructed from AO integral file.
 @GETMEM-I,  Allocated       6 MB of main memory.
  Initialization and symmetry analysis required      0.002 seconds.

  @INITGES-I, Occupancies from core Hamiltonian:

          Alpha population by irrep:  10    2
           Beta population by irrep:  10    2


 total no. of electrons in initial guess :  0.000000000000000E+000
  --------------------------------------------------------------------
  Iteration         Total Energy            Largest Density Difference
  --------------------------------------------------------------------
       0            70.902892953739340              0.0000000000D+00
   current occupation vector 
    10  2
    10  2
       1          -132.299393605022885              0.1376032009D+02
   current occupation vector 
    10  2
    10  2
       2          -123.825141809457151              0.5607375984D+02
   current occupation vector 
    10  2
    10  2
       3          -143.884199138968881              0.5607513669D+02
   current occupation vector 
    10  2
    10  2
       4          -120.610037793785821              0.7748664842D+01
   current occupation vector 
     9  3
     9  3
       5          -137.600937068326687              0.7888769255D+01
   current occupation vector 
    10  2
    10  2
       6          -119.222184433387710              0.8749214834D+01
   current occupation vector 
     9  3
     9  3
       7          -135.958901942382454              0.8749200509D+01
   current occupation vector 
    10  2
    10  2
       8          -119.325259347590631              0.8756288316D+01
   current occupation vector 
     9  3
     9  3
       9          -156.956988864102414              0.8746092993D+01
   current occupation vector 
    10  2
    10  2
      10          -168.725151308084378              0.1968567975D+01
   current occupation vector 
    10  2
    10  2
      11          -168.832883383175954              0.4340929606D+00
   current occupation vector 
    10  2
    10  2
      12          -168.903228211020519              0.2591503865D+00
   current occupation vector 
    10  2
    10  2
      13          -168.910534648225564              0.6988837637D-01
   current occupation vector 
    10  2
    10  2
      14          -168.911070721507144              0.2139175891D-01
   current occupation vector 
    10  2
    10  2
      15          -168.911138966385124              0.6814790507D-02
   current occupation vector 
    10  2
    10  2
      16          -168.911161733070060              0.5152018692D-02
   current occupation vector 
    10  2
    10  2
      17          -168.911163272971123              0.1750946746D-02
   current occupation vector 
    10  2
    10  2
      18          -168.911163382699101              0.4603954726D-03
   current occupation vector 
    10  2
    10  2
      19          -168.911163391897162              0.1465969100D-03
   current occupation vector 
    10  2
    10  2
      20          -168.911163393037043              0.5153001941D-04
   current occupation vector 
    10  2
    10  2
      21          -168.911163393127993              0.1089343039D-04
   current occupation vector 
    10  2
    10  2
      22          -168.911163393152151              0.5003802711D-05
   current occupation vector 
    10  2
    10  2
      23          -168.911163393157437              0.1840584538D-05
   current occupation vector 
    10  2
    10  2
      24          -168.911163393156414              0.9468471680D-06
   current occupation vector 
    10  2
    10  2
      25          -168.911163393155164              0.1640589788D-06
   current occupation vector 
    10  2
    10  2
      26          -168.911163393156130              0.6088025639D-07
   current occupation vector 
    10  2
    10  2
      27          -168.911163393156130              0.2350351114D-07
   current occupation vector 
    10  2
    10  2

  SCF has converged.

 Density matrix saved to file den.dat
 total electron number:   24.0000000000001     
     E(SCF)=      -168.911163393155846              0.8930156836D-08

  Eigenvector printing suppressed.

 @PUTMOS-I, Writing converged MOs to NEWMOS. 
 @PUTMOS-I, Symmetry   1 Full Blocks 22 Partial Blocksize   2
 @PUTMOS-I, Symmetry   2 Full Blocks 10 Partial Blocksize   2
 @PUTFOCK-I, Writing converged Fock matrix to NEWFOCK. 
 @PUTFOCK-I, Symmetry   1 Full Blocks 22 Partial Blocksize   2
 @PUTFOCK-I, Symmetry   2 Full Blocks 10 Partial Blocksize   2


 
  ORBITAL EIGENVALUES (ALPHA)  (1H = 27.2113834 eV)

       MO #        E(hartree)               E(eV)           FULLSYM    COMPSYM
       ----   --------------------   --------------------   -------   ---------
    1     1         -20.5979660876        -560.4991524686     A'        A'  (1)
    2     2         -15.6327623949        -425.3890911287     A'        A'  (1)
    3     3         -11.2718732685        -306.7232651462     A'        A'  (1)
    4     4          -1.4278799759         -38.8545894743     A'        A'  (1)
    5     5          -1.1594926839         -31.5513999710     A'        A'  (1)
    6     6          -0.8262948810         -22.4846268070     A'        A'  (1)
    7     7          -0.7233272565         -19.6827353016     A'        A'  (1)
    8     8          -0.6543251986         -17.8050938485     A'        A'  (1)
    9    91          -0.5947237482         -16.1832559288     A''       A'' (2)
   10     9          -0.5930316565         -16.1372117744     A'        A'  (1)
   11    10          -0.4482471236         -12.1974243380     A'        A'  (1)
   12    92          -0.4058984170         -11.0450574461     A''       A'' (2)
  +++++++++++++++++++++++++++++++++++++++++++++++++++++++++++++++++++++++++++++
   13    93           0.1462576304           3.9798724554     A''       A'' (2)
   14    11           0.1573678906           4.2821980047     A'        A'  (1)
   15    12           0.1710480974           4.6544553581     A'        A'  (1)
   16    13           0.2049210105           5.5761841822     A'        A'  (1)
   17    14           0.2800500564           7.6205494553     A'        A'  (1)
   18    15           0.3724280697          10.1342829942     A'        A'  (1)
   19    16           0.4410955267          12.0028194927     A'        A'  (1)
   20    94           0.4657677388          12.6741845167     A''       A'' (2)
   21    17           0.5131588216          13.9637614404     A'        A'  (1)
   22    18           0.5624191437          15.3042029513     A'        A'  (1)
   23    19           0.6037027413          16.4275867534     A'        A'  (1)
   24    20           0.6317072589          17.1896284188     A'        A'  (1)
   25    95           0.6810232258          18.5315841022     A''       A'' (2)
   26    21           0.6862791663          18.6746055123     A'        A'  (1)
   27    22           0.7196788340          19.5834566767     A'        A'  (1)
   28    96           0.7203695531          19.6022520985     A''       A'' (2)
   29    23           0.7658394674          20.8395513709     A'        A'  (1)
   30    24           0.7840695279          21.3356165373     A'        A'  (1)
   31    97           0.8488176401          23.0975022404     A''       A'' (2)
   32    98           0.8882550978          24.1706500237     A''       A'' (2)
   33    25           0.8884789347          24.1767409337     A'        A'  (1)
   34    99           0.9956177219          27.0921355504     A''       A'' (2)
   35    26           1.0366120859          28.2076489078     A'        A'  (1)
   36    27           1.0744229655          29.2365352487     A'        A'  (1)
   37    28           1.1169810681          30.3946000947     A'        A'  (1)
   38    29           1.1729440193          31.9174294148     A'        A'  (1)
   39   100           1.1750112699          31.9736821659     A''       A'' (2)
   40   101           1.2128430871          33.0031382470     A''       A'' (2)
   41    30           1.2715245110          34.5999409718     A'        A'  (1)
   42    31           1.3584349371          36.9648938966     A'        A'  (1)
   43    32           1.4357816204          39.0696041504     A'        A'  (1)
   44    33           1.5098500522          41.0851086482     A'        A'  (1)
   45   102           1.5454606988          42.0541236039     A''       A'' (2)
   46    34           1.5954530981          43.4144859494     A'        A'  (1)
   47    35           1.6493103206          44.8800154783     A'        A'  (1)
   48    36           1.6852841088          45.8589120228     A'        A'  (1)
   49   103           1.7064356942          46.4344759229     A''       A'' (2)
   50    37           1.8440707227          50.1797154512     A'        A'  (1)
   51    38           1.9736190007          53.7049033146     A'        A'  (1)
   52    39           2.0504767899          55.7963100827     A'        A'  (1)
   53   104           2.0705806907          56.3433650343     A''       A'' (2)
   54   105           2.2354600455          60.8299603744     A''       A'' (2)
   55    40           2.2645615273          61.6218519512     A'        A'  (1)
   56    41           2.3870728349          64.9555541131     A'        A'  (1)
   57   106           2.4029789055          65.3883803008     A''       A'' (2)
   58    42           2.5133977834          68.3930307198     A'        A'  (1)
   59    43           2.5555548231          69.5401820913     A'        A'  (1)
   60    44           2.7069768492          73.6605848986     A'        A'  (1)
   61    45           2.8079024550          76.4069102538     A'        A'  (1)
   62    46           2.8518084067          77.6016519385     A'        A'  (1)
   63    47           2.9439575275          80.1091569929     A'        A'  (1)
   64   107           2.9600750766          80.5477378009     A''       A'' (2)
   65   108           3.0053163765          81.7788161589     A''       A'' (2)
   66    48           3.1957392054          86.9604847648     A'        A'  (1)
   67   109           3.2266712834          87.8021893972     A''       A'' (2)
   68   110           3.2428766009          88.2431585062     A''       A'' (2)
   69   111           3.2792421972          89.2327166898     A''       A'' (2)
   70    49           3.2793866696          89.2366479820     A'        A'  (1)
   71    50           3.3143327564          90.1875793509     A'        A'  (1)
   72    51           3.3234608156          90.4359664668     A'        A'  (1)
   73   112           3.4519319952          93.9318449921     A''       A'' (2)
   74    52           3.5660651014          97.0375647049     A'        A'  (1)
   75    53           3.6170241967          98.4242321823     A'        A'  (1)
   76   113           3.6300243393          98.7779840490     A''       A'' (2)
   77    54           3.6309992233          98.8045119896     A'        A'  (1)
   78    55           3.7134876895         101.0491372705     A'        A'  (1)
   79   114           3.7141751103         101.0678429413     A''       A'' (2)
   80    56           3.8087044355         103.6401166507     A'        A'  (1)
   81   115           3.8107008637         103.6944422261     A''       A'' (2)
   82    57           3.9974651884         108.7765578708     A'        A'  (1)
   83   116           3.9993507731         108.8278672367     A''       A'' (2)
   84   117           4.0189211457         109.3604041492     A''       A'' (2)
   85    58           4.0489548304         110.1776622583     A'        A'  (1)
   86    59           4.0961088022         111.4607870651     A'        A'  (1)
   87    60           4.1270803030         112.3035644467     A'        A'  (1)
   88   118           4.1298405022         112.3786732864     A''       A'' (2)
   89    61           4.1678149050         113.4120093211     A'        A'  (1)
   90    62           4.2529760370         115.7293615332     A'        A'  (1)
   91   119           4.2697398927         116.1855292388     A''       A'' (2)
   92    63           4.3224886949         117.6208971179     A'        A'  (1)
   93   120           4.3687005059         118.8783844251     A''       A'' (2)
   94    64           4.4408532951         120.8417616360     A'        A'  (1)
   95    65           4.5244081319         123.1154043341     A'        A'  (1)
   96   121           4.5519712491         123.8654348852     A''       A'' (2)
   97    66           4.5658020659         124.2417905450     A'        A'  (1)
   98   122           4.7888829361         130.3121296332     A''       A'' (2)
   99    67           4.9611464950         134.9996593803     A'        A'  (1)
  100   123           5.0401905657         137.1505578917     A''       A'' (2)
  101    68           5.0535169533         137.5131873334     A'        A'  (1)
  102    69           5.0844862033         138.3559034710     A'        A'  (1)
  103   124           5.1661414499         140.5778556911     A''       A'' (2)
  104    70           5.2107649152         141.7921219144     A'        A'  (1)
  105   125           5.2802085032         143.6817780125     A''       A'' (2)
  106    71           5.2900797805         143.9503891239     A'        A'  (1)
  107    72           5.3280666605         144.9840646789     A'        A'  (1)
  108   126           5.3677556571         146.0640571839     A''       A'' (2)
  109    73           5.3803967919         146.4080399477     A'        A'  (1)
  110    74           5.4419292152         148.0824223112     A'        A'  (1)
  111    75           5.5597190646         151.2876470630     A'        A'  (1)
  112    76           5.6771518306         154.4831550824     A'        A'  (1)
  113   127           5.7189901168         155.6216327297     A''       A'' (2)
  114    77           5.8673002351         159.6573562189     A'        A'  (1)
  115    78           5.9534635409         162.0019789704     A'        A'  (1)
  116   128           5.9907082090         163.0154579133     A''       A'' (2)
  117    79           6.0790990208         165.4206941818     A'        A'  (1)
  118   129           6.3553462444         172.9377632965     A''       A'' (2)
  119    80           6.3667896067         173.2491530154     A'        A'  (1)
  120    81           6.7188513924         182.8292412456     A'        A'  (1)
  121   130           6.9119384658         188.0834076294     A''       A'' (2)
  122    82           6.9140522488         188.1409265907     A'        A'  (1)
  123   131           7.0584661902         192.0706297183     A''       A'' (2)
  124    83           7.1022353622         193.2616494371     A'        A'  (1)
  125   132           7.2240234760         196.5756724957     A''       A'' (2)
  126    84           7.2340994693         196.8498542129     A'        A'  (1)
  127    85           7.6204317275         207.3624894096     A'        A'  (1)
  128    86           7.7115854329         209.8429078362     A'        A'  (1)
  129    87           7.8375903329         213.2716754806     A'        A'  (1)
  130    88          10.4964482226         285.6228769226     A'        A'  (1)
  131    89          12.0433157922         327.7152834284     A'        A'  (1)
  132    90          14.0023317912         381.0228188636     A'        A'  (1)


  VSCF finished.

 @CHECKOUT-I, Total execution time (CPU/WALL):        6.42/      10.05 seconds.
--executable xvscf finished with status     0 in       10.06 seconds (walltime).
 --invoking executable--
/home/orgChemistry/bin/cfour_v21/bin/xvtran
 @GETMEM-I,  Allocated    4768 MB of main memory.
  Partial RHF integral transformation
  Frozen-core orbitals requested within analytic derivative calculation
  Transformation of IIII integrals :
  1 pass through the AO integral file was required.
     8650667 AO integrals were read.
     3207686 MO integrals were written to HF2.
  Transformation of IIJJ integrals :
  1 pass through the AO integral file was required.
     3611750 AO integrals were read.
     1040985 MO integrals were written to HF2.
  Transformation of IJIJ integrals :
  1 pass through the AO integral file was required.
     6952336 AO integrals were read.
     2024490 MO integrals were written to HF2.
  Summary of active molecular orbitals: 
------------------------------------------------------------------------
 
  Index      Eigenvalue    Symmetry    Index      Eigenvalue    Symmetry
------------------------------------------------------------------------
     1       -20.5979661        1        67         4.5244081        1
     2       -15.6327624        1        68         4.5658021        1
     3       -11.2718733        1        69         4.9611465        1
     4        -1.4278800        1        70         5.0535170        1
     5        -1.1594927        1        71         5.0844862        1
     6        -0.8262949        1        72         5.2107649        1
     7        -0.7233273        1        73         5.2900798        1
     8        -0.6543252        1        74         5.3280667        1
     9        -0.5930317        1        75         5.3803968        1
    10        -0.4482471        1        76         5.4419292        1
    11        -0.5947237        2        77         5.5597191        1
    12        -0.4058984        2        78         5.6771518        1
    13         0.1573679        1        79         5.8673002        1
    14         0.1710481        1        80         5.9534635        1
    15         0.2049210        1        81         6.0790990        1
    16         0.2800501        1        82         6.3667896        1
    17         0.3724281        1        83         6.7188514        1
    18         0.4410955        1        84         6.9140522        1
    19         0.5131588        1        85         7.1022354        1
    20         0.5624191        1        86         7.2340995        1
    21         0.6037027        1        87         7.6204317        1
    22         0.6317073        1        88         7.7115854        1
    23         0.6862792        1        89         7.8375903        1
    24         0.7196788        1        90        10.4964482        1
    25         0.7658395        1        91        12.0433158        1
    26         0.7840695        1        92        14.0023318        1
    27         0.8884789        1        93         0.1462576        2
    28         1.0366121        1        94         0.4657677        2
    29         1.0744230        1        95         0.6810232        2
    30         1.1169811        1        96         0.7203696        2
    31         1.1729440        1        97         0.8488176        2
    32         1.2715245        1        98         0.8882551        2
    33         1.3584349        1        99         0.9956177        2
    34         1.4357816        1       100         1.1750113        2
    35         1.5098501        1       101         1.2128431        2
    36         1.5954531        1       102         1.5454607        2
    37         1.6493103        1       103         1.7064357        2
    38         1.6852841        1       104         2.0705807        2
    39         1.8440707        1       105         2.2354600        2
    40         1.9736190        1       106         2.4029789        2
    41         2.0504768        1       107         2.9600751        2
    42         2.2645615        1       108         3.0053164        2
    43         2.3870728        1       109         3.2266713        2
    44         2.5133978        1       110         3.2428766        2
    45         2.5555548        1       111         3.2792422        2
    46         2.7069768        1       112         3.4519320        2
    47         2.8079025        1       113         3.6300243        2
    48         2.8518084        1       114         3.7141751        2
    49         2.9439575        1       115         3.8107009        2
    50         3.1957392        1       116         3.9993508        2
    51         3.2793867        1       117         4.0189211        2
    52         3.3143328        1       118         4.1298405        2
    53         3.3234608        1       119         4.2697399        2
    54         3.5660651        1       120         4.3687005        2
    55         3.6170242        1       121         4.5519712        2
    56         3.6309992        1       122         4.7888829        2
    57         3.7134877        1       123         5.0401906        2
    58         3.8087044        1       124         5.1661414        2
    59         3.9974652        1       125         5.2802085        2
    60         4.0489548        1       126         5.3677557        2
    61         4.0961088        1       127         5.7189901        2
    62         4.1270803        1       128         5.9907082        2
    63         4.1678149        1       129         6.3553462        2
    64         4.2529760        1       130         6.9119385        2
    65         4.3224887        1       131         7.0584662        2
    66         4.4408533        1       132         7.2240235        2
------------------------------------------------------------------------
  -20.5979660875513       -15.6327623948981       -11.2718732685299     
  -1.42787997593362       -1.15949268389758      -0.826294880950923     
 -0.723327256549399      -0.654325198642513      -0.593031656539350     
 -0.448247123591051      -0.594723748179371      -0.405898416986561     
  0.157367890551979       0.171048097397295       0.204921010454518     
  0.280050056377763       0.372428069723328       0.441095526686570     
  0.513158821627810       0.562419143720242       0.603702741309431     
  0.631707258912231       0.686279166251166       0.719678833995353     
  0.765839467423281       0.784069527948555       0.888478934654311     
   1.03661208594619        1.07442296552721        1.11698106810367     
   1.17294401925856        1.27152451101897        1.35843493707207     
   1.43578162036248        1.50985005224624        1.59545309811117     
   1.64931032055866        1.68528410881289        1.84407072266754     
   1.97361900073913        2.05047678989594        2.26456152726029     
   2.38707283486062        2.51339778336311        2.55555482310742     
   2.70697684920322        2.80790245503780        2.85180840671453     
   2.94395752745478        3.19573920541012        3.27938666955256     
   3.31433275644875        3.32346081555085        3.56606510144994     
   3.61702419665518        3.63099922327323        3.71348768951341     
   3.80870443546397        3.99746518844113        4.04895483036169     
   4.09610880221032        4.12708030297114        4.16781490503216     
   4.25297603697561        4.32248869485679        4.44085329509576     
   4.52440813185845        4.56580206594743        4.96114649504914     
   5.05351695325588        5.08448620333788        5.21076491518510     
   5.29007978050300        5.32806666047474        5.38039679186872     
   5.44192921522693        5.55971906459660        5.67715183059645     
   5.86730023505201        5.95346354094007        6.07909902080853     
   6.36678960671452        6.71885139237725        6.91405224883466     
   7.10223536217206        7.23409946930031        7.62043172746584     
   7.71158543288783        7.83759033289807        10.4964482225683     
   12.0433157921840        14.0023317911737       0.146257630380101     
  0.465767738831567       0.681023225823358       0.720369553078188     
  0.848817640060406       0.888255097816413       0.995617721897951     
   1.17501126994843        1.21284308709624        1.54546069877124     
   1.70643569421967        2.07058069066329        2.23546004553482     
   2.40297890554141        2.96007507655551        3.00531637648630     
   3.22667128335770        3.24287660090898        3.27924219721261     
   3.45193199519961        3.63002433933572        3.71417511030757     
   3.81070086374771        3.99935077305554        4.01892114567079     
   4.12984050220657        4.26973989270875        4.36870050587317     
   4.55197124910486        4.78888293614795        5.04019056567641     
   5.16614144987101        5.28020850319984        5.36775565713901     
   5.71899011682253        5.99070820902512        6.35534624441385     
   6.91193846577540        7.05846619023233        7.22402347598719     
 @CHECKOUT-I, Total execution time (CPU/WALL):        1.79/       2.14 seconds.
--executable xvtran finished with status     0 in        2.15 seconds (walltime).
 --invoking executable--
/home/orgChemistry/bin/cfour_v21/bin/xintprc
 @GETMEM-I,  Allocated    4768 MB of main memory.
  @GMOIAA-I, Processing MO integrals for spin case AA.
  @GMOIAA-I, Generation of integral list completed.
                      TYPE                NUMBER
                      ----               --------
                      PPPP                     0
                      PPPH               5364800
                      PPHH                544720
                      PHPH                299480
                      PHHH                 62240
                      HHHH                  1921

                     TOTAL               6273161

  @FORMT2-I, Second-order MP correlation energies:
            ------------------------------------------------
            E(SCF)                  =   -168.911163393156 a.u.
            E2(AA)                  =     -0.074491428527 a.u.
            E2(AB)                  =     -0.460070659860 a.u.
            E2(TOT)                 =     -0.609053516914 a.u.
            Total MP2 energy        =   -169.520216910070 a.u.
            ------------------------------------------------
   Largest T2 amplitudes for spin case AB:
       _       _                 _       _                 _       _
   i   j   a   b             i   j   a   b             i   j   a   b
-----------------------------------------------------------------------------
[ 12  12  93  93]-0.07404 [ 12  11  93  93]-0.03245 [ 11  12  93  93]-0.03245
[ 11  11  93  93]-0.02982 [ 12  12  94  94]-0.02502 [ 12  12  94  93]-0.02289
[ 12  12  93  94]-0.02289 [ 10  10  17  17]-0.01912 [  6   6  93  93]-0.01861
[  8   8  17  17]-0.01740 [  7   7  17  17]-0.01632 [ 11  11  97  97]-0.01607
[ 10  10  23  23]-0.01571 [ 12  12  95  93]-0.01508 [ 12  12  93  95]-0.01508
-----------------------------------------------------------------------------
   Norm of T2AB vector (  1088000 symmetry allowed elements):  0.3599049853.
-----------------------------------------------------------------------------
 @CHECKOUT-I, Total execution time (CPU/WALL):        0.47/       1.06 seconds.
--executable xintprc finished with status     0 in        1.07 seconds (walltime).
  calling xecc 
 --invoking executable--
/home/orgChemistry/bin/cfour_v21/bin/xecc
 @GETMEM-I,  Allocated    4768 MB of main memory.
 CCSD(T) energy will be calculated.
 AO based algorithm is used. 
   Frozen core orbitals in analytic derivative calculation
 Largest T2 amplitudes for spin case AB:
        _       _                 _       _                 _       _
    i   j   a   b             i   j   a   b             i   j   a   b
 -----------------------------------------------------------------------------
 [ 12  12  93  93]-0.07404 [ 12  11  93  93]-0.03245 [ 11  12  93  93]-0.03245
 [ 11  11  93  93]-0.02982 [ 12  12  94  94]-0.02502 [ 12  12  94  93]-0.02289
 [ 12  12  93  94]-0.02289 [ 10  10  17  17]-0.01912 [  6   6  93  93]-0.01861
 [  8   8  17  17]-0.01740 [  7   7  17  17]-0.01632 [ 11  11  97  97]-0.01607
 [ 10  10  23  23]-0.01571 [ 12  12  95  93]-0.01508 [ 12  12  93  95]-0.01508
 -----------------------------------------------------------------------------
 Norm of T2AB vector (  1088000 symmetry allowed elements):  0.3599049853.
 -----------------------------------------------------------------------------
 The total correlation energy is -0.609053516914 a.u.
 Resorts of amplitudes and integrals (CPU/WALL):       0.03/       0.06 seconds.
 Starting iterative solution of the CC equations.
 The DIIS procedure is used to accelerate convergence.
 5 expansion vectors are used in the DIIS extrapolation.
 Convergence criterium is 10**(-10).
 Maximum number of iterations is 100.
 >>>>>>>>>>>>>>>>>>>>>>>>>>>>>>>>>>>>>>>>>>>>>>>>>>>>>>>>>>>>>>>>>>>>>>>>>>>>>>>
 Iteration Nr.   1 started:
 Generation of Intermediates required (CPU/WALL):      0.37/       0.61 seconds.
 Transformation of t(ab,ij) amplitudes required    0.0 seconds.
 Contraction of t(mu nu,ij) with AO integrals required    2.6 seconds.
 Backtransformation of t(mu nu,ij) increments required    0.0 seconds.
 Construction of Hbar required (CPU/WALL):             2.90/       3.24 seconds.
   Frozen core orbitals in analytic derivative calculation
 Amplitude changes are:
 -------------------------------------------------------------------
              Spin      RMS          Max.      Max. change for
  Amplitude   Case     Change       Change       i    j    a    b
 -------------------------------------------------------------------
     T1        AA    0.0000532247 0.0196315027   12        93
     T2        AB    0.0000000460-0.0054067963   12   12   93   93
 -------------------------------------------------------------------
 The total correlation energy is -0.604071688540 a.u.
 Convergence information after     1 iterations: 
 Largest element of residual vector :  0.19631503E-01.
 Largest element of DIIS residual   :  0.19631503E-01.
 Iteration Nr.   1 required (CPU/WALL):                3.37/       4.05 seconds.
 >>>>>>>>>>>>>>>>>>>>>>>>>>>>>>>>>>>>>>>>>>>>>>>>>>>>>>>>>>>>>>>>>>>>>>>>>>>>>>>
 Iteration Nr.   2 started:
 Generation of Intermediates required (CPU/WALL):      0.36/       0.59 seconds.
 Transformation of t(ab,ij) amplitudes required    0.0 seconds.
 Contraction of t(mu nu,ij) with AO integrals required    2.6 seconds.
 Backtransformation of t(mu nu,ij) increments required    0.0 seconds.
 Construction of Hbar required (CPU/WALL):             2.91/       3.24 seconds.
   Frozen core orbitals in analytic derivative calculation
 Amplitude changes are:
 -------------------------------------------------------------------
              Spin      RMS          Max.      Max. change for
  Amplitude   Case     Change       Change       i    j    a    b
 -------------------------------------------------------------------
     T1        AA    0.0000070148 0.0025522002   11        93
     T2        AB    0.0000000244-0.0119756167   12   12   93   93
 -------------------------------------------------------------------
 The total correlation energy is -0.621725714530 a.u.
 Convergence information after     2 iterations: 
 Largest element of residual vector : -0.11975617E-01.
 Largest element of DIIS residual   : -0.11334841E-01.
 Iteration Nr.   2 required (CPU/WALL):                3.40/       4.08 seconds.
 >>>>>>>>>>>>>>>>>>>>>>>>>>>>>>>>>>>>>>>>>>>>>>>>>>>>>>>>>>>>>>>>>>>>>>>>>>>>>>>
 Iteration Nr.   3 started:
 Generation of Intermediates required (CPU/WALL):      0.36/       0.59 seconds.
 Transformation of t(ab,ij) amplitudes required    0.0 seconds.
 Contraction of t(mu nu,ij) with AO integrals required    2.6 seconds.
 Backtransformation of t(mu nu,ij) increments required    0.0 seconds.
 Construction of Hbar required (CPU/WALL):             2.92/       3.24 seconds.
   Frozen core orbitals in analytic derivative calculation
 Amplitude changes are:
 -------------------------------------------------------------------
              Spin      RMS          Max.      Max. change for
  Amplitude   Case     Change       Change       i    j    a    b
 -------------------------------------------------------------------
     T1        AA    0.0000103830 0.0057576929   12        93
     T2        AB    0.0000000084-0.0036553936   12   12   93   93
 -------------------------------------------------------------------
 The total correlation energy is -0.621689098607 a.u.
 Convergence information after     3 iterations: 
 Largest element of residual vector :  0.57576929E-02.
 Largest element of DIIS residual   :  0.42692663E-02.
 Iteration Nr.   3 required (CPU/WALL):                3.44/       4.12 seconds.
 >>>>>>>>>>>>>>>>>>>>>>>>>>>>>>>>>>>>>>>>>>>>>>>>>>>>>>>>>>>>>>>>>>>>>>>>>>>>>>>
 Iteration Nr.   4 started:
 Generation of Intermediates required (CPU/WALL):      0.37/       0.60 seconds.
 Transformation of t(ab,ij) amplitudes required    0.0 seconds.
 Contraction of t(mu nu,ij) with AO integrals required    2.6 seconds.
 Backtransformation of t(mu nu,ij) increments required    0.0 seconds.
 Construction of Hbar required (CPU/WALL):             2.92/       3.24 seconds.
   Frozen core orbitals in analytic derivative calculation
 Amplitude changes are:
 -------------------------------------------------------------------
              Spin      RMS          Max.      Max. change for
  Amplitude   Case     Change       Change       i    j    a    b
 -------------------------------------------------------------------
     T1        AA    0.0000017460 0.0006141671   12        93
     T2        AB    0.0000000031-0.0017116137   12   12   93   93
 -------------------------------------------------------------------
 The total correlation energy is -0.623669855308 a.u.
 Convergence information after     4 iterations: 
 Largest element of residual vector : -0.17116137E-02.
 Largest element of DIIS residual   : -0.93857310E-03.
 Iteration Nr.   4 required (CPU/WALL):                3.48/       4.19 seconds.
 >>>>>>>>>>>>>>>>>>>>>>>>>>>>>>>>>>>>>>>>>>>>>>>>>>>>>>>>>>>>>>>>>>>>>>>>>>>>>>>
 Iteration Nr.   5 started:
 Generation of Intermediates required (CPU/WALL):      0.37/       0.59 seconds.
 Transformation of t(ab,ij) amplitudes required    0.0 seconds.
 Contraction of t(mu nu,ij) with AO integrals required    2.6 seconds.
 Backtransformation of t(mu nu,ij) increments required    0.0 seconds.
 Construction of Hbar required (CPU/WALL):             2.93/       3.24 seconds.
   Frozen core orbitals in analytic derivative calculation
 Amplitude changes are:
 -------------------------------------------------------------------
              Spin      RMS          Max.      Max. change for
  Amplitude   Case     Change       Change       i    j    a    b
 -------------------------------------------------------------------
     T1        AA    0.0000018617 0.0012408663   12        93
     T2        AB    0.0000000010-0.0004617784   12   12   93   93
 -------------------------------------------------------------------
 The total correlation energy is -0.624031237868 a.u.
 Convergence information after     5 iterations: 
 Largest element of residual vector :  0.12408663E-02.
 Largest element of DIIS residual   :  0.52928448E-03.
 Iteration Nr.   5 required (CPU/WALL):                3.52/       4.25 seconds.
 Largest T1 amplitudes for spin case AA:
    i       a                 i       a                 i       a    
 -----------------------------------------------------------------------------
 [ 12      93    ] 0.02909 [ 12      94    ] 0.02289 [ 11      93    ]-0.01978
 [ 12     101    ] 0.00895 [  9      17    ] 0.00827 [ 12      99    ]-0.00764
 [ 11      97    ]-0.00758 [ 10      14    ] 0.00697 [ 11      98    ]-0.00676
 [ 12      96    ]-0.00672 [ 12      98    ]-0.00637 [ 10      15    ] 0.00623
 [  9      14    ] 0.00616 [ 10      23    ]-0.00587 [  7      23    ] 0.00572
 -----------------------------------------------------------------------------
 Norm of T1AA vector (      880 symmetry allowed elements):  0.0593047500.
 -----------------------------------------------------------------------------
 Largest T2 amplitudes for spin case AB:
        _       _                 _       _                 _       _
    i   j   a   b             i   j   a   b             i   j   a   b
 -----------------------------------------------------------------------------
 [ 12  12  93  93]-0.09966 [ 12  11  93  93]-0.04320 [ 11  12  93  93]-0.04320
 [ 12  12  94  93]-0.03245 [ 12  12  93  94]-0.03245 [ 11  11  93  93]-0.03167
 [ 10  10  17  17]-0.02539 [ 12  12  94  94]-0.02511 [  6   6  93  93]-0.02011
 [ 10  10  93  93]-0.01927 [  8   8  17  17]-0.01926 [ 12  12  95  93]-0.01862
 [ 12  12  93  95]-0.01862 [  7   7  17  17]-0.01779 [ 10  10  23  23]-0.01680
 -----------------------------------------------------------------------------
 Norm of T2AB vector (  1088000 symmetry allowed elements):  0.3996885451.
 -----------------------------------------------------------------------------
 >>>>>>>>>>>>>>>>>>>>>>>>>>>>>>>>>>>>>>>>>>>>>>>>>>>>>>>>>>>>>>>>>>>>>>>>>>>>>>>
 Iteration Nr.   6 started:
 Generation of Intermediates required (CPU/WALL):      0.37/       0.59 seconds.
 Transformation of t(ab,ij) amplitudes required    0.0 seconds.
 Contraction of t(mu nu,ij) with AO integrals required    2.6 seconds.
 Backtransformation of t(mu nu,ij) increments required    0.0 seconds.
 Construction of Hbar required (CPU/WALL):             2.92/       3.24 seconds.
   Frozen core orbitals in analytic derivative calculation
 Amplitude changes are:
 -------------------------------------------------------------------
              Spin      RMS          Max.      Max. change for
  Amplitude   Case     Change       Change       i    j    a    b
 -------------------------------------------------------------------
     T1        AA    0.0000006173 0.0003887435   12        93
     T2        AB    0.0000000003 0.0000505263   12   11   93   93
 -------------------------------------------------------------------
 The total correlation energy is -0.624060945433 a.u.
 Convergence information after     6 iterations: 
 Largest element of residual vector :  0.38874353E-03.
 Largest element of DIIS residual   :  0.15542121E-03.
 Iteration Nr.   6 required (CPU/WALL):                3.52/       4.26 seconds.
 >>>>>>>>>>>>>>>>>>>>>>>>>>>>>>>>>>>>>>>>>>>>>>>>>>>>>>>>>>>>>>>>>>>>>>>>>>>>>>>
 Iteration Nr.   7 started:
 Generation of Intermediates required (CPU/WALL):      0.37/       0.60 seconds.
 Transformation of t(ab,ij) amplitudes required    0.0 seconds.
 Contraction of t(mu nu,ij) with AO integrals required    2.6 seconds.
 Backtransformation of t(mu nu,ij) increments required    0.0 seconds.
 Construction of Hbar required (CPU/WALL):             2.92/       3.24 seconds.
   Frozen core orbitals in analytic derivative calculation
 Amplitude changes are:
 -------------------------------------------------------------------
              Spin      RMS          Max.      Max. change for
  Amplitude   Case     Change       Change       i    j    a    b
 -------------------------------------------------------------------
     T1        AA    0.0000003111 0.0002142029   12        93
     T2        AB    0.0000000001 0.0000561825   12   12   93   93
 -------------------------------------------------------------------
 The total correlation energy is -0.624064625490 a.u.
 Convergence information after     7 iterations: 
[...]
                          CHIzz =      -103.58623
                          CHIxy =        19.50677
                          CHIxz =        -0.00000
                          CHIyz =        -0.00000
                             Z-matrix center   4:
  Atomic charge is                      1
       XX =    0.2170546920  YY =   -0.0548111138  ZZ =   -0.1622435782
       XY =    0.1785935841  XZ =   -0.0000000000  YZ =   -0.0000000000
                          In kHz, Mass number   2
                          CHIxx =       145.86057
                          CHIyy =       -36.83302
                          CHIzz =      -109.02755
                          CHIxy =       120.01474
                          CHIxz =        -0.00000
                          CHIyz =        -0.00000
                             Z-matrix center   5:
  Atomic charge is                      8
       XX =    1.8993172266  YY =    0.0686558289  ZZ =   -1.9679730554
       XY =    0.4003448672  XZ =   -0.0000000000  YZ =   -0.0000000000
                             Z-matrix center   6:
  Atomic charge is                      1
       XX =    0.1513951549  YY =    0.1250582497  ZZ =   -0.2764534047
       XY =   -0.3392114825  XZ =    0.0000000000  YZ =   -0.0000000000
                          In kHz, Mass number   2
                          CHIxx =       101.73742
                          CHIyy =        84.03904
                          CHIzz =      -185.77645
                          CHIxy =      -227.94983
                          CHIxz =         0.00000
                          CHIyz =        -0.00000
   Electrostatic potential at atomic centers 
          Z-matrix                             Potential
           center                               [<1/r>]
              1                            -14.7342097886
              2                            -18.3293976858
              3                             -1.0801477979
              4                             -1.0811360245
              5                            -22.3075478137
              6                             -0.9880248667
 
  Mulliken population analysis of SCF density.
   Total density is analyzed.
 
  Population analysis by orbitals.
 -------------------------------------------------------
     Z-matrix
      Center          Function          Population
 -------------------------------------------------------
         1                S              1.99850048
         1                S              1.49407959
         1                S             -0.01755190
         1                S             -0.17741000
         1                P              1.18912552
         1                P             -0.12022520
         1                P             -0.15995343
         1                P              1.23708955
         1                P             -0.11154350
         1                P             -0.18999140
         1                P              0.88307136
         1                P             -0.00435047
         1                P              0.00088001
         1                D              0.00543894
         1                D              0.01094916
         1                D              0.00956499
         1                D              0.01295702
         1                D              0.00312833
         1                D              0.01434920
         1                D              0.00445065
         1                D              0.01394417
         1                D              0.00179134
         1                D              0.01024339
         1                D              0.00213093
         1                D              0.00388560
         1                F              0.00079282
         1                F              0.00238256
         1                F              0.00083550
         1                F              0.00171040
         1                F              0.00162201
         1                F              0.00057714
         1                F              0.00068406
         1                F              0.00018150
         1                F              0.00047215
         1                F              0.00059678
         2                S              1.99829656
         2                S              1.74148879
         2                S             -0.00591232
         2                S             -0.13191456
         2                P              1.01454051
         2                P             -0.02425676
         2                P             -0.14354246
         2                P              1.46972207
         2                P             -0.02696246
         2                P             -0.03489722
         2                P              1.08812474
         2                P              0.00360363
         2                P              0.00500764
         2                D              0.00137434
         2                D              0.00885376
         2                D              0.00645317
         2                D              0.02876112
         2                D              0.00233924
         2                D              0.02324565
         2                D              0.00075431
         2                D              0.00552553
         2                D              0.00128279
         2                D              0.01055166
         2                D              0.00116784
         2                D              0.00421814
         2                F              0.00043545
         2                F              0.00156751
         2                F              0.00069177
         2                F              0.00110890
         2                F              0.00140598
         2                F              0.00062918
         2                F              0.00021425
         2                F              0.00004126
         2                F              0.00033799
         2                F              0.00036250
         3                S              1.38535221
         3                S             -0.22681794
         3                S             -0.30164134
         3                P              0.00074844
         3                P              0.00507581
         3                P              0.00765273
         3                P              0.00409819
         3                P              0.00091417
         3                P              0.00641718
         3                D              0.00016785
         3                D              0.00087121
         3                D              0.00000388
         3                D              0.00062165
         3                D              0.00053420
         3                D              0.00014113
         4                S              1.38837897
         4                S             -0.23629001
         4                S             -0.31712142
         4                P              0.00621915
         4                P              0.00014339
         4                P              0.00222983
         4                P              0.00588284
         4                P              0.00099327
         4                P              0.00764240
         4                D              0.00054584
         4                D              0.00078992
         4                D              0.00051569
         4                D              0.00027267
         4                D              0.00006399
         4                D              0.00012113
         5                S              1.99838666
         5                S              1.82676650
         5                S             -0.00577315
         5                S             -0.02844128
         5                P              1.21432313
         5                P              0.00554227
         5                P             -0.09815663
         5                P              1.53423528
         5                P             -0.01111988
         5                P             -0.04164839
         5                P              1.83336487
         5                P             -0.00108059
         5                P              0.05881524
         5                D              0.00024784
         5                D              0.00286255
         5                D              0.00230737
         5                D              0.01685495
         5                D              0.00018115
         5                D              0.00327777
         5                D              0.00028408
         5                D              0.00263740
         5                D              0.00025092
         5                D              0.00231833
         5                D              0.00040537
         5                D              0.00280476
         5                F              0.00011438
         5                F              0.00049869
         5                F              0.00014139
         5                F              0.00027686
         5                F              0.00010131
         5                F              0.00037285
         5                F              0.00003741
         5                F              0.00001731
         5                F              0.00021449
         5                F              0.00008301
         6                S              1.14857457
         6                S             -0.22860933
         6                S             -0.24814658
         6                P              0.00823325
         6                P              0.01354219
         6                P              0.00809408
         6                P              0.01233704
         6                P              0.00424999
         6                P              0.02895113
         6                D              0.00116736
         6                D              0.00191737
         6                D              0.00158205
         6                D              0.00102553
         6                D              0.00165554
         6                D              0.00036482
 -------------------------------------------------------
  Population analysis by atoms (atomic charges).
 -------------------------------------------------------
     Z-matrix
      Center          Function          Population
 -------------------------------------------------------
         1                               6.12440923
         2                               7.05462050
         3                               0.88413937
         4                               0.86038765
         5                               8.32150421
         6                               0.75493903
 -------------------------------------------------------
 
  Mulliken population analysis of CCSD(T) density.
   Total density is analyzed.
 
  Population analysis by orbitals.
 -------------------------------------------------------
     Z-matrix
      Center          Function          Population
 -------------------------------------------------------
         1                S              1.99768532
         1                S              1.48408141
         1                S             -0.00937846
         1                S             -0.16739196
         1                P              1.18316691
         1                P             -0.12723588
         1                P             -0.15108416
         1                P              1.23278056
         1                P             -0.11765323
         1                P             -0.18006586
         1                P              0.95824367
         1                P             -0.01398412
         1                P             -0.02057429
         1                D              0.00643977
         1                D              0.01036051
         1                D              0.01073824
         1                D              0.01289871
         1                D              0.00458744
         1                D              0.01347024
         1                D              0.00565128
         1                D              0.01374292
         1                D              0.00346536
         1                D              0.01008591
         1                D              0.00325897
         1                D              0.00681070
         1                F              0.00105330
         1                F              0.00274378
         1                F              0.00111640
         1                F              0.00236237
         1                F              0.00176691
         1                F              0.00092212
         1                F              0.00088258
         1                F              0.00059313
         1                F              0.00083063
         1                F              0.00065131
         2                S              1.99747428
         2                S              1.72904917
         2                S              0.00238699
         2                S             -0.14003595
         2                P              1.03866815
         2                P             -0.03797794
         2                P             -0.13717472
         2                P              1.43990294
         2                P             -0.04108615
         2                P             -0.02141599
         2                P              1.12232045
         2                P             -0.01047298
         2                P             -0.02876706
         2                D              0.00256174
         2                D              0.01082771
         2                D              0.00784595
         2                D              0.02943989
         2                D              0.00387751
         2                D              0.02482091
         2                D              0.00212288
         2                D              0.00850562
         2                D              0.00316376
         2                D              0.01398011
         2                D              0.00229876
         2                D              0.00652455
         2                F              0.00064293
         2                F              0.00183842
         2                F              0.00102592
         2                F              0.00154259
         2                F              0.00179083
         2                F              0.00090767
         2                F              0.00040560
         2                F              0.00041657
         2                F              0.00065997
         2                F              0.00049982
         3                S              1.38100712
         3                S             -0.23609023
         3                S             -0.28672383
         3                P              0.00141207
         3                P              0.00738275
         3                P              0.00772807
         3                P              0.00110542
         3                P              0.00167622
         3                P              0.00849029
         3                D              0.00021659
         3                D              0.00106781
         3                D              0.00008723
         3                D              0.00068955
         3                D              0.00078601
         3                D              0.00020894
         4                S              1.38091334
         4                S             -0.24675935
         4                S             -0.30858351
         4                P              0.00644243
         4                P             -0.00162313
         4                P              0.00275846
         4                P              0.00649075
         4                P              0.00176202
         4                P              0.01004573
         4                D              0.00066626
         4                D              0.00090018
         4                D              0.00073005
         4                D              0.00036716
         4                D              0.00019855
         4                D              0.00019218
         5                S              1.99775814
         5                S              1.81271058
         5                S              0.00332254
         5                S             -0.02851712
         5                P              1.24179917
         5                P             -0.01340938
         5                P             -0.11010758
         5                P              1.52744979
         5                P             -0.03106224
         5                P             -0.04426025
         5                P              1.79444951
         5                P             -0.02380989
         5                P              0.07295600
         5                D              0.00133246
         5                D              0.00544446
         5                D              0.00378351
         5                D              0.01870939
         5                D              0.00197221
         5                D              0.00788421
         5                D              0.00143772
         5                D              0.00537273
         5                D              0.00210489
         5                D              0.00686630
         5                D              0.00163485
         5                D              0.00534283
         5                F              0.00028394
         5                F              0.00079889
         5                F              0.00048081
         5                F              0.00061679
         5                F              0.00054235
         5                F              0.00068937
         5                F              0.00020489
         5                F              0.00036484
         5                F              0.00055081
         5                F              0.00025586
         6                S              1.15796962
         6                S             -0.23126784
         6                S             -0.24495394
         6                P              0.00800181
         6                P              0.01305245
         6                P              0.00793186
         6                P              0.01244020
         6                P              0.00464242
         6                P              0.03364770
         6                D              0.00112164
         6                D              0.00173334
         6                D              0.00159959
         6                D              0.00099770
         6                D              0.00159563
         6                D              0.00039594
 -------------------------------------------------------
  Population analysis by atoms (atomic charges).
 -------------------------------------------------------
     Z-matrix
      Center          Function          Population
 -------------------------------------------------------
         1                               6.18302246
         2                               7.03857090
         3                               0.88904403
         4                               0.85450112
         5                               8.26595335
         6                               0.76890814
 -------------------------------------------------------
 @CHECKOUT-I, Total execution time (CPU/WALL):        0.08/       0.24 seconds.
--executable xprops finished with status     0 in        0.25 seconds (walltime).
  The final electronic energy is      -169.562796872670873 a.u. 
  This computation required                         5069.79 seconds (walltime).

real	84m29.790s
user	53m48.735s
sys	12m35.125s
