 Entering Gaussian System, Link 0=/home/orgChemistry/bin/gaussian16-C.01/g16/g16
 Initial command:
 /home/orgChemistry/bin/gaussian16-C.01/g16/l1.exe "/scratch/agSchreiner/ruthm/139849/gaussian_iso4.iso4_b3lyp_6311_G_3df_3dp/Gau-143987.inp" -scrdir="/scratch/agSchreiner/ruthm/139849/gaussian_iso4.iso4_b3lyp_6311_G_3df_3dp/"
 Entering Link 1 = /home/orgChemistry/bin/gaussian16-C.01/g16/l1.exe PID=    143993.
  
 Copyright (c) 1988-2019, Gaussian, Inc.  All Rights Reserved.
  
 This is part of the Gaussian(R) 16 program.  It is based on
 the Gaussian(R) 09 system (copyright 2009, Gaussian, Inc.),
 the Gaussian(R) 03 system (copyright 2003, Gaussian, Inc.),
 the Gaussian(R) 98 system (copyright 1998, Gaussian, Inc.),
 the Gaussian(R) 94 system (copyright 1995, Gaussian, Inc.),
 the Gaussian 92(TM) system (copyright 1992, Gaussian, Inc.),
 the Gaussian 90(TM) system (copyright 1990, Gaussian, Inc.),
 the Gaussian 88(TM) system (copyright 1988, Gaussian, Inc.),
 the Gaussian 86(TM) system (copyright 1986, Carnegie Mellon
 University), and the Gaussian 82(TM) system (copyright 1983,
 Carnegie Mellon University). Gaussian is a federally registered
 trademark of Gaussian, Inc.
  
 This software contains proprietary and confidential information,
 including trade secrets, belonging to Gaussian, Inc.
  
 This software is provided under written license and may be
 used, copied, transmitted, or stored only in accord with that
 written license.
  
 The following legend is applicable only to US Government
 contracts under FAR:
  
                    RESTRICTED RIGHTS LEGEND
  
 Use, reproduction and disclosure by the US Government is
 subject to restrictions as set forth in subparagraphs (a)
 and (c) of the Commercial Computer Software - Restricted
 Rights clause in FAR 52.227-19.
  
 Gaussian, Inc.
 340 Quinnipiac St., Bldg. 40, Wallingford CT 06492
  
  
 ---------------------------------------------------------------
 Warning -- This program may not be used in any manner that
 competes with the business of Gaussian, Inc. or will provide
 assistance to any competitor of Gaussian, Inc.  The licensee
 of this program is prohibited from giving any competitor of
 Gaussian, Inc. access to this program.  By using this program,
 the user acknowledges that Gaussian, Inc. is engaged in the
 business of creating and licensing software in the field of
 computational chemistry and represents and warrants to the
 licensee that it is not a competitor of Gaussian, Inc. and that
 it will not use this program in any manner prohibited above.
 ---------------------------------------------------------------
  

 Cite this work as:
 Gaussian 16, Revision C.01,
 M. J. Frisch, G. W. Trucks, H. B. Schlegel, G. E. Scuseria, 
 M. A. Robb, J. R. Cheeseman, G. Scalmani, V. Barone, 
 G. A. Petersson, H. Nakatsuji, X. Li, M. Caricato, A. V. Marenich, 
 J. Bloino, B. G. Janesko, R. Gomperts, B. Mennucci, H. P. Hratchian, 
 J. V. Ortiz, A. F. Izmaylov, J. L. Sonnenberg, D. Williams-Young, 
 F. Ding, F. Lipparini, F. Egidi, J. Goings, B. Peng, A. Petrone, 
 T. Henderson, D. Ranasinghe, V. G. Zakrzewski, J. Gao, N. Rega, 
 G. Zheng, W. Liang, M. Hada, M. Ehara, K. Toyota, R. Fukuda, 
 J. Hasegawa, M. Ishida, T. Nakajima, Y. Honda, O. Kitao, H. Nakai, 
 T. Vreven, K. Throssell, J. A. Montgomery, Jr., J. E. Peralta, 
 F. Ogliaro, M. J. Bearpark, J. J. Heyd, E. N. Brothers, K. N. Kudin, 
 V. N. Staroverov, T. A. Keith, R. Kobayashi, J. Normand, 
 K. Raghavachari, A. P. Rendell, J. C. Burant, S. S. Iyengar, 
 J. Tomasi, M. Cossi, J. M. Millam, M. Klene, C. Adamo, R. Cammi, 
 J. W. Ochterski, R. L. Martin, K. Morokuma, O. Farkas, 
 J. B. Foresman, and D. J. Fox, Gaussian, Inc., Wallingford CT, 2019.
 
 ******************************************
 Gaussian 16:  ES64L-G16RevC.01  3-Jul-2019
                26-Jan-2021 
 ******************************************
 %Chk=file_name
 %NProcShared=24
 Will use up to   24 processors via shared memory.
 %mem=48000mb
 -------------------------------------------
 #p b3lyp/6-311++G(3df,3pd) opt freq=noraman
 -------------------------------------------
 1/18=20,19=15,26=3,38=1/1,3;
 2/9=110,12=2,17=6,18=5,40=1/2;
 3/5=4,6=6,7=1616,11=2,25=1,30=1,71=1,74=-5/1,2,3;
 4//1;
 5/5=2,38=5/2;
 6/7=2,8=2,9=2,10=2,28=1/1;
 7//1,2,3,16;
 1/18=20,19=15,26=3/3(2);
 2/9=110/2;
 99//99;
 2/9=110/2;
 3/5=4,6=6,7=1616,11=2,25=1,30=1,71=1,74=-5/1,2,3;
 4/5=5,16=3,69=1/1;
 5/5=2,38=5/2;
 7//1,2,3,16;
 1/18=20,19=15,26=3/3(-5);
 2/9=110/2;
 6/7=2,8=2,9=2,10=2,19=2,28=1/1;
 99/9=1/99;
 Leave Link    1 at Tue Jan 26 00:24:30 2021, MaxMem=  6291456000 cpu:               5.7 elap:               0.4
 (Enter /home/orgChemistry/bin/gaussian16-C.01/g16/l101.exe)
 -----
 title
 -----
 Symbolic Z-matrix:
 Charge =  0 Multiplicity = 1
 6                    -2.8409    3.45457   0.52432 
 8                    -2.30377   2.36077   0.59699 
 1                    -2.95253   4.13824   1.38128 
 7                    -3.36339   3.95331  -0.62654 
 1                    -3.80591   4.85954  -0.67671 
 1                    -3.30205   3.38668  -1.46237 
 
 ITRead=  0  0  0  0  0  0
 MicOpt= -1 -1 -1 -1 -1 -1
 NAtoms=      6 NQM=        6 NQMF=       0 NMMI=      0 NMMIF=      0
                NMic=       0 NMicF=      0.
                    Isotopes and Nuclear Properties:
 (Nuclear quadrupole moments (NQMom) in fm**2, nuclear magnetic moments (NMagM)
  in nuclear magnetons)

  Atom         1           2           3           4           5           6
 IAtWgt=          12          16           1          14           1           1
 AtmWgt=  12.0000000  15.9949146   1.0078250  14.0030740   1.0078250   1.0078250
 NucSpn=           0           0           1           2           1           1
 AtZEff=  -0.0000000  -0.0000000  -0.0000000  -0.0000000  -0.0000000  -0.0000000
 NQMom=    0.0000000   0.0000000   0.0000000   2.0440000   0.0000000   0.0000000
 NMagM=    0.0000000   0.0000000   2.7928460   0.4037610   2.7928460   2.7928460
 AtZNuc=   6.0000000   8.0000000   1.0000000   7.0000000   1.0000000   1.0000000
 Leave Link  101 at Tue Jan 26 00:24:35 2021, MaxMem=  6291456000 cpu:               9.0 elap:               0.5
 (Enter /home/orgChemistry/bin/gaussian16-C.01/g16/l103.exe)

 GradGradGradGradGradGradGradGradGradGradGradGradGradGradGradGradGradGrad
 Berny optimization.
 Initialization pass.
                           ----------------------------
                           !    Initial Parameters    !
                           ! (Angstroms and Degrees)  !
 --------------------------                            --------------------------
 ! Name  Definition              Value          Derivative Info.                !
 --------------------------------------------------------------------------------
 ! R1    R(1,2)                  1.2207         estimate D2E/DX2                !
 ! R2    R(1,3)                  1.1019         estimate D2E/DX2                !
 ! R3    R(1,4)                  1.3588         estimate D2E/DX2                !
 ! R4    R(4,5)                  1.0097         estimate D2E/DX2                !
 ! R5    R(4,6)                  1.0117         estimate D2E/DX2                !
 ! A1    A(2,1,3)              123.6552         estimate D2E/DX2                !
 ! A2    A(2,1,4)              123.265          estimate D2E/DX2                !
 ! A3    A(3,1,4)              113.0797         estimate D2E/DX2                !
 ! A4    A(1,4,5)              122.6857         estimate D2E/DX2                !
 ! A5    A(1,4,6)              118.0913         estimate D2E/DX2                !
 ! A6    A(5,4,6)              119.223          estimate D2E/DX2                !
 ! D1    D(2,1,4,5)           -179.9995         estimate D2E/DX2                !
 ! D2    D(2,1,4,6)             -0.0002         estimate D2E/DX2                !
 ! D3    D(3,1,4,5)              0.0004         estimate D2E/DX2                !
 ! D4    D(3,1,4,6)            179.9998         estimate D2E/DX2                !
 --------------------------------------------------------------------------------
 Trust Radius=3.00D-01 FncErr=1.00D-07 GrdErr=1.00D-06 EigMax=2.50D+02 EigMin=1.00D-04
 Number of steps in this run=     25 maximum allowed number of steps=    100.
 GradGradGradGradGradGradGradGradGradGradGradGradGradGradGradGradGradGrad

 Leave Link  103 at Tue Jan 26 00:24:40 2021, MaxMem=  6291456000 cpu:               0.6 elap:               0.4
 (Enter /home/orgChemistry/bin/gaussian16-C.01/g16/l202.exe)
                          Input orientation:                          
 ---------------------------------------------------------------------
 Center     Atomic      Atomic             Coordinates (Angstroms)
 Number     Number       Type             X           Y           Z
 ---------------------------------------------------------------------
      1          6           0       -2.840900    3.454570    0.524318
      2          8           0       -2.303768    2.360771    0.596988
      3          1           0       -2.952534    4.138238    1.381283
      4          7           0       -3.363390    3.953315   -0.626542
      5          1           0       -3.805910    4.859543   -0.676706
      6          1           0       -3.302046    3.386683   -1.462371
 ---------------------------------------------------------------------
                    Distance matrix (angstroms):
                    1          2          3          4          5
     1  C    0.000000
     2  O    1.220732   0.000000
     3  H    1.101932   2.048269   0.000000
     4  N    1.358757   2.270687   2.057756   0.000000
     5  H    2.085103   3.181602   2.341763   1.009748   0.000000
     6  H    2.040636   2.507990   2.961986   1.011655   1.743693
                    6
     6  H    0.000000
 Stoichiometry    CH3NO
 Framework group  C1[X(CH3NO)]
 Deg. of freedom    12
 Full point group                 C1      NOp   1
 Largest Abelian subgroup         C1      NOp   1
 Largest concise Abelian subgroup C1      NOp   1
                         Standard orientation:                         
 ---------------------------------------------------------------------
 Center     Atomic      Atomic             Coordinates (Angstroms)
 Number     Number       Type             X           Y           Z
 ---------------------------------------------------------------------
      1          6           0       -0.158967    0.401569   -0.000000
      2          8           0       -1.190952   -0.250500    0.000000
      3          1           0       -0.132657    1.503187    0.000000
      4          7           0        1.077962   -0.160773   -0.000001
      5          1           0        1.926087    0.387199    0.000005
      6          1           0        1.142250   -1.170383    0.000002
 ---------------------------------------------------------------------
 Rotational constants (GHZ):          71.3443792          11.4441703           9.8621999
 Leave Link  202 at Tue Jan 26 00:24:46 2021, MaxMem=  6291456000 cpu:               6.4 elap:               0.5
 (Enter /home/orgChemistry/bin/gaussian16-C.01/g16/l301.exe)
 Standard basis: 6-311++G(3df,3pd) (5D, 7F)
 Ernie: Thresh=  0.10000D-02 Tol=  0.10000D-05 Strict=F.
 There are   192 symmetry adapted cartesian basis functions of A   symmetry.
 There are   171 symmetry adapted basis functions of A   symmetry.
   171 basis functions,   237 primitive gaussians,   192 cartesian basis functions
    12 alpha electrons       12 beta electrons
       nuclear repulsion energy        71.0991361282 Hartrees.
 IExCor=  402 DFT=T Ex+Corr=B3LYP ExCW=0 ScaHFX=  0.200000
 ScaDFX=  0.800000  0.720000  1.000000  0.810000 ScalE2=  1.000000  1.000000
 IRadAn=      5 IRanWt=     -1 IRanGd=            0 ICorTp=0 IEmpDi=  4
 NAtoms=    6 NActive=    6 NUniq=    6 SFac= 1.00D+00 NAtFMM=   60 NAOKFM=F Big=F
 Integral buffers will be    131072 words long.
 Raffenetti 2 integral format.
 Two-electron integral symmetry is turned on.
 Leave Link  301 at Tue Jan 26 00:24:51 2021, MaxMem=  6291456000 cpu:               1.5 elap:               0.4
 (Enter /home/orgChemistry/bin/gaussian16-C.01/g16/l302.exe)
 NPDir=0 NMtPBC=     1 NCelOv=     1 NCel=       1 NClECP=     1 NCelD=      1
         NCelK=      1 NCelE2=     1 NClLst=     1 CellRange=     0.0.
 One-electron integrals computed using PRISM.
 One-electron integral symmetry used in STVInt
 NBasis=   171 RedAO= T EigKep=  2.30D-04  NBF=   171
 NBsUse=   171 1.00D-06 EigRej= -1.00D+00 NBFU=   171
 Precomputing XC quadrature grid using
 IXCGrd= 4 IRadAn=           5 IRanWt=          -1 IRanGd=           0 AccXCQ= 0.00D+00.
 Generated NRdTot=       0 NPtTot=           0 NUsed=           0 NTot=          32
 NSgBfM=   192   192   192   192   192 MxSgAt=     6 MxSgA2=     6.
 Leave Link  302 at Tue Jan 26 00:24:57 2021, MaxMem=  6291456000 cpu:               8.5 elap:               0.4
 (Enter /home/orgChemistry/bin/gaussian16-C.01/g16/l303.exe)
 DipDrv:  MaxL=1.
 Leave Link  303 at Tue Jan 26 00:25:02 2021, MaxMem=  6291456000 cpu:               7.9 elap:               0.6
 (Enter /home/orgChemistry/bin/gaussian16-C.01/g16/l401.exe)
 ExpMin= 3.60D-02 ExpMax= 8.59D+03 ExpMxC= 1.30D+03 IAcc=3 IRadAn=         5 AccDes= 0.00D+00
 Harris functional with IExCor=  402 and IRadAn=       5 diagonalized for initial guess.
 HarFok:  IExCor=  402 AccDes= 0.00D+00 IRadAn=         5 IDoV= 1 UseB2=F ITyADJ=14
 ICtDFT=  3500011 ScaDFX=  1.000000  1.000000  1.000000  1.000000
 FoFCou: FMM=F IPFlag=           0 FMFlag=      100000 FMFlg1=           0
         NFxFlg=           0 DoJE=T BraDBF=F KetDBF=T FulRan=T
         wScrn=  0.000000 ICntrl=       500 IOpCl=  0 I1Cent=   200000004 NGrid=           0
         NMat0=    1 NMatS0=      1 NMatT0=    0 NMatD0=    1 NMtDS0=    0 NMtDT0=    0
 Petite list used in FoFCou.
 Harris En= -169.988422215415    
 JPrj=0 DoOrth=F DoCkMO=F.
 Leave Link  401 at Tue Jan 26 00:25:07 2021, MaxMem=  6291456000 cpu:               9.1 elap:               0.9
 (Enter /home/orgChemistry/bin/gaussian16-C.01/g16/l502.exe)
 Keep R1 ints in memory in canonical form, NReq=132662971.
 FoFCou: FMM=F IPFlag=           0 FMFlag=           0 FMFlg1=           0
         NFxFlg=           0 DoJE=F BraDBF=F KetDBF=F FulRan=T
         wScrn=  0.000000 ICntrl=       600 IOpCl=  0 I1Cent=           0 NGrid=           0
         NMat0=    1 NMatS0=  14706 NMatT0=    0 NMatD0=    1 NMtDS0=    0 NMtDT0=    0
 Symmetry not used in FoFCou.
 Two-electron integral symmetry not used.
 Closed shell SCF:
 Using DIIS extrapolation, IDIIS=  1040.
 NGot=  6291456000 LenX=  6183235241 LenY=  6183197936
 Requested convergence on RMS density matrix=1.00D-08 within 128 cycles.
 Requested convergence on MAX density matrix=1.00D-06.
 Requested convergence on             energy=1.00D-06.
 No special actions if energy rises.

 Cycle   1  Pass 1  IDiag  1:
 E= -169.848024523247    
 DIIS: error= 3.36D-02 at cycle   1 NSaved=   1.
 NSaved= 1 IEnMin= 1 EnMin= -169.848024523247     IErMin= 1 ErrMin= 3.36D-02
 ErrMax= 3.36D-02  0.00D+00 EMaxC= 1.00D-01 BMatC= 1.68D-01 BMatP= 1.68D-01
 IDIUse=3 WtCom= 6.64D-01 WtEn= 3.36D-01
 Coeff-Com:  0.100D+01
 Coeff-En:   0.100D+01
 Coeff:      0.100D+01
 Gap=     0.248 Goal=   None    Shift=    0.000
 GapD=    0.248 DampG=1.000 DampE=0.500 DampFc=0.5000 IDamp=-1.
 Damping current iteration by 5.00D-01
 RMSDP=6.17D-03 MaxDP=2.43D-01              OVMax= 3.48D-01

 Cycle   2  Pass 1  IDiag  1:
 E= -169.835906129892     Delta-E=        0.012118393355 Rises=F Damp=T
 DIIS: error= 2.02D-02 at cycle   2 NSaved=   2.
 NSaved= 2 IEnMin= 1 EnMin= -169.848024523247     IErMin= 2 ErrMin= 2.02D-02
 ErrMax= 2.02D-02  0.00D+00 EMaxC= 1.00D-01 BMatC= 4.82D-02 BMatP= 1.68D-01
 IDIUse=3 WtCom= 7.98D-01 WtEn= 2.02D-01
 Coeff-Com:  0.319D+00 0.681D+00
 Coeff-En:   0.535D+00 0.465D+00
 Coeff:      0.363D+00 0.637D+00
 Gap=     0.235 Goal=   None    Shift=    0.000
 RMSDP=2.42D-03 MaxDP=1.06D-01 DE= 1.21D-02 OVMax= 2.73D-01

 Cycle   3  Pass 1  IDiag  1:
 E= -169.947861786226     Delta-E=       -0.111955656334 Rises=F Damp=F
 DIIS: error= 1.90D-02 at cycle   3 NSaved=   3.
 NSaved= 3 IEnMin= 3 EnMin= -169.947861786226     IErMin= 3 ErrMin= 1.90D-02
 ErrMax= 1.90D-02  0.00D+00 EMaxC= 1.00D-01 BMatC= 2.31D-02 BMatP= 4.82D-02
 IDIUse=3 WtCom= 8.10D-01 WtEn= 1.90D-01
 Coeff-Com:  0.142D+00 0.413D+00 0.445D+00
 Coeff-En:   0.000D+00 0.000D+00 0.100D+01
 Coeff:      0.115D+00 0.335D+00 0.550D+00
 Gap=     0.284 Goal=   None    Shift=    0.000
 RMSDP=7.07D-04 MaxDP=3.19D-02 DE=-1.12D-01 OVMax= 8.99D-02

 Cycle   4  Pass 1  IDiag  1:
 E= -169.961267988937     Delta-E=       -0.013406202711 Rises=F Damp=F
 DIIS: error= 9.28D-03 at cycle   4 NSaved=   4.
 NSaved= 4 IEnMin= 4 EnMin= -169.961267988937     IErMin= 4 ErrMin= 9.28D-03
 ErrMax= 9.28D-03  0.00D+00 EMaxC= 1.00D-01 BMatC= 7.00D-03 BMatP= 2.31D-02
 IDIUse=3 WtCom= 9.07D-01 WtEn= 9.28D-02
 Coeff-Com:  0.780D-02 0.599D-01 0.361D+00 0.572D+00
 Coeff-En:   0.000D+00 0.000D+00 0.269D+00 0.731D+00
 Coeff:      0.707D-02 0.544D-01 0.352D+00 0.587D+00
 Gap=     0.255 Goal=   None    Shift=    0.000
 RMSDP=2.88D-04 MaxDP=1.30D-02 DE=-1.34D-02 OVMax= 3.10D-02

 Cycle   5  Pass 1  IDiag  1:
 E= -169.966597577658     Delta-E=       -0.005329588720 Rises=F Damp=F
 DIIS: error= 7.22D-04 at cycle   5 NSaved=   5.
 NSaved= 5 IEnMin= 5 EnMin= -169.966597577658     IErMin= 5 ErrMin= 7.22D-04
 ErrMax= 7.22D-04  0.00D+00 EMaxC= 1.00D-01 BMatC= 8.69D-05 BMatP= 7.00D-03
 IDIUse=3 WtCom= 9.93D-01 WtEn= 7.22D-03
 Coeff-Com: -0.261D-02 0.286D-02 0.124D+00 0.248D+00 0.627D+00
 Coeff-En:   0.000D+00 0.000D+00 0.000D+00 0.000D+00 0.100D+01
 Coeff:     -0.259D-02 0.284D-02 0.123D+00 0.247D+00 0.630D+00
 Gap=     0.253 Goal=   None    Shift=    0.000
 RMSDP=4.38D-05 MaxDP=2.21D-03 DE=-5.33D-03 OVMax= 3.75D-03

 Cycle   6  Pass 1  IDiag  1:
 E= -169.966667748111     Delta-E=       -0.000070170453 Rises=F Damp=F
 DIIS: error= 2.78D-04 at cycle   6 NSaved=   6.
 NSaved= 6 IEnMin= 6 EnMin= -169.966667748111     IErMin= 6 ErrMin= 2.78D-04
 ErrMax= 2.78D-04  0.00D+00 EMaxC= 1.00D-01 BMatC= 9.84D-06 BMatP= 8.69D-05
 IDIUse=3 WtCom= 9.97D-01 WtEn= 2.78D-03
 Coeff-Com: -0.441D-03-0.313D-02 0.266D-01 0.568D-01 0.294D+00 0.626D+00
 Coeff-En:   0.000D+00 0.000D+00 0.000D+00 0.000D+00 0.186D-01 0.981D+00
 Coeff:     -0.440D-03-0.312D-02 0.265D-01 0.566D-01 0.293D+00 0.627D+00
 Gap=     0.254 Goal=   None    Shift=    0.000
 RMSDP=1.57D-05 MaxDP=5.53D-04 DE=-7.02D-05 OVMax= 8.65D-04

 Cycle   7  Pass 1  IDiag  1:
 E= -169.966676584963     Delta-E=       -0.000008836852 Rises=F Damp=F
 DIIS: error= 4.23D-05 at cycle   7 NSaved=   7.
 NSaved= 7 IEnMin= 7 EnMin= -169.966676584963     IErMin= 7 ErrMin= 4.23D-05
 ErrMax= 4.23D-05  0.00D+00 EMaxC= 1.00D-01 BMatC= 2.47D-07 BMatP= 9.84D-06
 IDIUse=1 WtCom= 1.00D+00 WtEn= 0.00D+00
 Coeff-Com:  0.361D-03-0.141D-02 0.116D-02 0.192D-02 0.504D-01 0.143D+00
 Coeff-Com:  0.805D+00
 Coeff:      0.361D-03-0.141D-02 0.116D-02 0.192D-02 0.504D-01 0.143D+00
 Coeff:      0.805D+00
 Gap=     0.254 Goal=   None    Shift=    0.000
 RMSDP=2.77D-06 MaxDP=7.86D-05 DE=-8.84D-06 OVMax= 1.75D-04

 Cycle   8  Pass 1  IDiag  1:
 E= -169.966676780265     Delta-E=       -0.000000195303 Rises=F Damp=F
 DIIS: error= 7.08D-06 at cycle   8 NSaved=   8.
 NSaved= 8 IEnMin= 8 EnMin= -169.966676780265     IErMin= 8 ErrMin= 7.08D-06
 ErrMax= 7.08D-06  0.00D+00 EMaxC= 1.00D-01 BMatC= 7.95D-09 BMatP= 2.47D-07
 IDIUse=1 WtCom= 1.00D+00 WtEn= 0.00D+00
 Coeff-Com:  0.111D-03-0.184D-03-0.456D-03-0.147D-02-0.187D-02-0.650D-02
 Coeff-Com:  0.146D+00 0.865D+00
 Coeff:      0.111D-03-0.184D-03-0.456D-03-0.147D-02-0.187D-02-0.650D-02
 Coeff:      0.146D+00 0.865D+00
 Gap=     0.254 Goal=   None    Shift=    0.000
 RMSDP=6.07D-07 MaxDP=1.53D-05 DE=-1.95D-07 OVMax= 4.46D-05

 Cycle   9  Pass 1  IDiag  1:
 E= -169.966676787752     Delta-E=       -0.000000007486 Rises=F Damp=F
 DIIS: error= 9.62D-07 at cycle   9 NSaved=   9.
 NSaved= 9 IEnMin= 9 EnMin= -169.966676787752     IErMin= 9 ErrMin= 9.62D-07
 ErrMax= 9.62D-07  0.00D+00 EMaxC= 1.00D-01 BMatC= 1.65D-10 BMatP= 7.95D-09
 IDIUse=1 WtCom= 1.00D+00 WtEn= 0.00D+00
 Coeff-Com: -0.714D-05 0.129D-04 0.474D-06-0.148D-03-0.150D-02-0.440D-02
 Coeff-Com: -0.915D-02 0.784D-01 0.937D+00
 Coeff:     -0.714D-05 0.129D-04 0.474D-06-0.148D-03-0.150D-02-0.440D-02
 Coeff:     -0.915D-02 0.784D-01 0.937D+00
 Gap=     0.254 Goal=   None    Shift=    0.000
 RMSDP=7.34D-08 MaxDP=2.10D-06 DE=-7.49D-09 OVMax= 4.06D-06

 Cycle  10  Pass 1  IDiag  1:
 E= -169.966676787894     Delta-E=       -0.000000000142 Rises=F Damp=F
 DIIS: error= 2.12D-07 at cycle  10 NSaved=  10.
 NSaved=10 IEnMin=10 EnMin= -169.966676787894     IErMin=10 ErrMin= 2.12D-07
 ErrMax= 2.12D-07  0.00D+00 EMaxC= 1.00D-01 BMatC= 5.70D-12 BMatP= 1.65D-10
 IDIUse=1 WtCom= 1.00D+00 WtEn= 0.00D+00
 Coeff-Com: -0.226D-05 0.438D-05 0.111D-04-0.413D-05-0.185D-03-0.525D-03
 Coeff-Com: -0.404D-02-0.847D-02 0.109D+00 0.904D+00
 Coeff:     -0.226D-05 0.438D-05 0.111D-04-0.413D-05-0.185D-03-0.525D-03
 Coeff:     -0.404D-02-0.847D-02 0.109D+00 0.904D+00
 Gap=     0.254 Goal=   None    Shift=    0.000
 RMSDP=1.26D-08 MaxDP=3.09D-07 DE=-1.42D-10 OVMax= 9.61D-07

 Cycle  11  Pass 1  IDiag  1:
 E= -169.966676787899     Delta-E=       -0.000000000006 Rises=F Damp=F
 DIIS: error= 2.48D-08 at cycle  11 NSaved=  11.
 NSaved=11 IEnMin=11 EnMin= -169.966676787899     IErMin=11 ErrMin= 2.48D-08
 ErrMax= 2.48D-08  0.00D+00 EMaxC= 1.00D-01 BMatC= 1.14D-13 BMatP= 5.70D-12
 IDIUse=1 WtCom= 1.00D+00 WtEn= 0.00D+00
 Coeff-Com: -0.573D-07 0.517D-06 0.137D-05-0.979D-07-0.351D-05-0.111D-04
 Coeff-Com: -0.625D-03-0.362D-02-0.273D-02 0.196D+00 0.811D+00
 Coeff:     -0.573D-07 0.517D-06 0.137D-05-0.979D-07-0.351D-05-0.111D-04
 Coeff:     -0.625D-03-0.362D-02-0.273D-02 0.196D+00 0.811D+00
 Gap=     0.254 Goal=   None    Shift=    0.000
 RMSDP=1.68D-09 MaxDP=4.47D-08 DE=-5.74D-12 OVMax= 9.47D-08

 SCF Done:  E(RB3LYP) =  -169.966676788     A.U. after   11 cycles
            NFock= 11  Conv=0.17D-08     -V/T= 2.0043
 KE= 1.692357387637D+02 PE=-5.409111759016D+02 EE= 1.306096242218D+02
 Leave Link  502 at Tue Jan 26 00:25:15 2021, MaxMem=  6291456000 cpu:              41.9 elap:               3.8
 (Enter /home/orgChemistry/bin/gaussian16-C.01/g16/l601.exe)
 Copying SCF densities to generalized density rwf, IOpCl= 0 IROHF=0.

 **********************************************************************

            Population analysis using the SCF Density.

 **********************************************************************

 Orbital symmetries:
       Occupied  (A) (A) (A) (A) (A) (A) (A) (A) (A) (A) (A) (A)
       Virtual   (A) (A) (A) (A) (A) (A) (A) (A) (A) (A) (A) (A)
                 (A) (A) (A) (A) (A) (A) (A) (A) (A) (A) (A) (A)
                 (A) (A) (A) (A) (A) (A) (A) (A) (A) (A) (A) (A)
                 (A) (A) (A) (A) (A) (A) (A) (A) (A) (A) (A) (A)
                 (A) (A) (A) (A) (A) (A) (A) (A) (A) (A) (A) (A)
                 (A) (A) (A) (A) (A) (A) (A) (A) (A) (A) (A) (A)
                 (A) (A) (A) (A) (A) (A) (A) (A) (A) (A) (A) (A)
                 (A) (A) (A) (A) (A) (A) (A) (A) (A) (A) (A) (A)
                 (A) (A) (A) (A) (A) (A) (A) (A) (A) (A) (A) (A)
                 (A) (A) (A) (A) (A) (A) (A) (A) (A) (A) (A) (A)
                 (A) (A) (A) (A) (A) (A) (A) (A) (A) (A) (A) (A)
                 (A) (A) (A) (A) (A) (A) (A) (A) (A) (A) (A) (A)
                 (A) (A) (A) (A) (A) (A) (A) (A) (A) (A) (A) (A)
                 (A) (A) (A)
 The electronic state is 1-A.
 Alpha  occ. eigenvalues --  -19.10333 -14.35381 -10.28299  -1.04511  -0.92125
 Alpha  occ. eigenvalues --   -0.63971  -0.56988  -0.49344  -0.42715  -0.41788
 Alpha  occ. eigenvalues --   -0.29088  -0.27382
 Alpha virt. eigenvalues --   -0.01961  -0.00256   0.00540   0.02880   0.05935
 Alpha virt. eigenvalues --    0.06533   0.07647   0.10270   0.12117   0.12758
 Alpha virt. eigenvalues --    0.13564   0.15317   0.17990   0.18623   0.22518
 Alpha virt. eigenvalues --    0.22727   0.25654   0.28392   0.28949   0.30940
 Alpha virt. eigenvalues --    0.32758   0.37820   0.37946   0.41037   0.42323
 Alpha virt. eigenvalues --    0.46187   0.46391   0.48703   0.49745   0.51170
 Alpha virt. eigenvalues --    0.55855   0.56642   0.60006   0.60403   0.62879
 Alpha virt. eigenvalues --    0.64112   0.70165   0.73118   0.77131   0.77256
 Alpha virt. eigenvalues --    0.81887   0.83327   0.83885   0.91871   0.94340
 Alpha virt. eigenvalues --    0.94880   1.02790   1.04240   1.06127   1.08710
 Alpha virt. eigenvalues --    1.09785   1.14361   1.18355   1.20493   1.22857
 Alpha virt. eigenvalues --    1.27118   1.45578   1.48252   1.60412   1.62523
 Alpha virt. eigenvalues --    1.69254   1.70917   1.82803   1.83274   1.88801
 Alpha virt. eigenvalues --    1.89040   1.96946   2.08011   2.10139   2.12670
 Alpha virt. eigenvalues --    2.19062   2.26482   2.41656   2.47550   2.50147
 Alpha virt. eigenvalues --    2.60688   2.68194   2.70095   2.70969   2.79360
 Alpha virt. eigenvalues --    2.84913   2.87664   2.93544   3.00095   3.01219
 Alpha virt. eigenvalues --    3.04610   3.06609   3.09955   3.24853   3.25282
 Alpha virt. eigenvalues --    3.29372   3.36410   3.37176   3.40945   3.46190
 Alpha virt. eigenvalues --    3.56807   3.65628   3.75709   3.79220   3.82865
 Alpha virt. eigenvalues --    3.87690   3.95784   4.02391   4.10866   4.15039
 Alpha virt. eigenvalues --    4.22282   4.26360   4.31648   4.40732   4.49454
 Alpha virt. eigenvalues --    4.50001   4.65383   4.71617   4.81369   4.92522
 Alpha virt. eigenvalues --    4.97028   5.06970   5.10599   5.14243   5.24052
 Alpha virt. eigenvalues --    5.27370   5.32461   5.48864   5.58017   5.64873
 Alpha virt. eigenvalues --    5.66445   5.91113   6.11029   6.24368   6.31013
 Alpha virt. eigenvalues --    6.86160   6.93378   7.17710   7.29266   7.45544
 Alpha virt. eigenvalues --    7.90500   8.02260   8.28318   8.29982   8.36913
 Alpha virt. eigenvalues --    8.46040   8.58385   8.67127   8.93692   9.42677
 Alpha virt. eigenvalues --    9.58441  10.59977  10.61825  10.83243  11.46305
 Alpha virt. eigenvalues --   11.56155  14.36803  14.39620  14.67514  14.87688
 Alpha virt. eigenvalues --   15.05397  25.63879  37.11794  50.43740
          Condensed to atoms (all electrons):
               1          2          3          4          5          6
     1  C    4.542386   0.200123   0.411407   0.009555  -0.002067  -0.048203
     2  O    0.200123   8.702025  -0.060397  -0.201702   0.007861   0.021448
     3  H    0.411407  -0.060397   0.801924  -0.176520   0.012506   0.012807
     4  N    0.009555  -0.201702  -0.176520   7.469942   0.306022   0.337206
     5  H   -0.002067   0.007861   0.012506   0.306022   0.468203  -0.059343
     6  H   -0.048203   0.021448   0.012807   0.337206  -0.059343   0.474111
 Mulliken charges:
               1
     1  C    0.886798
     2  O   -0.669358
     3  H   -0.001727
     4  N   -0.744503
     5  H    0.266818
     6  H    0.261973
 Sum of Mulliken charges =  -0.00000
 Mulliken charges with hydrogens summed into heavy atoms:
               1
     1  C    0.885071
     2  O   -0.669358
     4  N   -0.215713
 Electronic spatial extent (au):  <R**2>=            146.8718
 Charge=             -0.0000 electrons
 Dipole moment (field-independent basis, Debye):
    X=              3.8840    Y=              0.9405    Z=              0.0000  Tot=              3.9962
 Quadrupole moment (field-independent basis, Debye-Ang):
   XX=            -18.3409   YY=            -15.5162   ZZ=            -19.1406
   XY=             -1.3053   XZ=              0.0000   YZ=              0.0000
 Traceless Quadrupole moment (field-independent basis, Debye-Ang):
   XX=             -0.6750   YY=              2.1497   ZZ=             -1.4747
   XY=             -1.3053   XZ=              0.0000   YZ=              0.0000
 Octapole moment (field-independent basis, Debye-Ang**2):
  XXX=             13.0482  YYY=             -1.7301  ZZZ=              0.0000  XYY=              2.7556
  XXY=              0.9454  XXZ=              0.0001  XZZ=             -1.4602  YZZ=             -0.1670
  YYZ=              0.0000  XYZ=              0.0000
 Hexadecapole moment (field-independent basis, Debye-Ang**3):
 XXXX=           -112.7940 YYYY=            -35.8265 ZZZZ=            -19.2351 XXXY=              2.5629
 XXXZ=              0.0001 YYYX=             -3.9947 YYYZ=             -0.0000 ZZZX=              0.0000
 ZZZY=              0.0000 XXYY=            -24.3711 XXZZ=            -25.9086 YYZZ=            -10.3242
 XXYZ=              0.0000 YYXZ=              0.0000 ZZXY=              0.1623
 N-N= 7.109913612824D+01 E-N=-5.409111765991D+02  KE= 1.692357387637D+02
 No NMR shielding tensors so no spin-rotation constants.
 Leave Link  601 at Tue Jan 26 00:25:19 2021, MaxMem=  6291456000 cpu:               5.4 elap:               0.5
 (Enter /home/orgChemistry/bin/gaussian16-C.01/g16/l701.exe)
 ... and contract with generalized density number  0.
 Compute integral first derivatives.
 Leave Link  701 at Tue Jan 26 00:25:22 2021, MaxMem=  6291456000 cpu:               5.2 elap:               0.6
 (Enter /home/orgChemistry/bin/gaussian16-C.01/g16/l702.exe)
 L702 exits ... SP integral derivatives will be done elsewhere.
 Leave Link  702 at Tue Jan 26 00:25:25 2021, MaxMem=  6291456000 cpu:               0.7 elap:               0.2
 (Enter /home/orgChemistry/bin/gaussian16-C.01/g16/l703.exe)
 Integral derivatives from FoFJK, PRISM(SPDF).
 Compute integral first derivatives, UseDBF=F ICtDFT=           0.
 Calling FoFJK, ICntrl=      2127 FMM=F ISym2X=0 I1Cent= 0 IOpClX= 0 NMat=1 NMatS=1 NMatT=0.
 FoFJK:  IHMeth= 1 ICntrl=    2127 DoSepK=F KAlg= 0 I1Cent=           0 FoldK=F
 IRaf=         0 NMat=       1 IRICut=       1 DoRegI=T DoRafI=F ISym2E= 0 IDoP0=0 IntGTp=1.
 FoFCou: FMM=F IPFlag=           0 FMFlag=      100000 FMFlg1=         800
         NFxFlg=           0 DoJE=F BraDBF=F KetDBF=F FulRan=T
         wScrn=  0.000000 ICntrl=      2127 IOpCl=  0 I1Cent=           0 NGrid=           0
         NMat0=    1 NMatS0=      1 NMatT0=    0 NMatD0=    1 NMtDS0=    0 NMtDT0=    0
 Symmetry not used in FoFCou.
 Leave Link  703 at Tue Jan 26 00:25:29 2021, MaxMem=  6291456000 cpu:              23.2 elap:               1.0
 (Enter /home/orgChemistry/bin/gaussian16-C.01/g16/l716.exe)
 Dipole        = 1.52806711D+00 3.70030633D-01 5.05480044D-06
 ***** Axes restored to original set *****
 -------------------------------------------------------------------
 Center     Atomic                   Forces (Hartrees/Bohr)
 Number     Number              X              Y              Z
 -------------------------------------------------------------------
      1        6           0.005245195   -0.014307430   -0.006221201
      2        8          -0.006576839    0.015337209    0.002826362
      3        1           0.000553717   -0.000835047    0.000634146
      4        7          -0.000840940    0.001047517   -0.001384568
      5        1           0.002307512   -0.004138481    0.001383595
      6        1          -0.000688645    0.002896233    0.002761667
 -------------------------------------------------------------------
 Cartesian Forces:  Max     0.015337209 RMS     0.005789712
 Leave Link  716 at Tue Jan 26 00:25:31 2021, MaxMem=  6291456000 cpu:               1.1 elap:               0.3
 (Enter /home/orgChemistry/bin/gaussian16-C.01/g16/l103.exe)

 GradGradGradGradGradGradGradGradGradGradGradGradGradGradGradGradGradGrad
 Berny optimization.
 FormGI is forming the generalized inverse of G from B-inverse, IUseBI=4.
 Internal  Forces:  Max     0.016467914 RMS     0.004958910
 Search for a local minimum.
 Step number   1 out of a maximum of   25
 All quantities printed in internal units (Hartrees-Bohrs-Radians)
 RMS Force = .49589D-02 SwitMx=.10000D-02 MixMth= 1
 Mixed Optimization -- RFO/linear search
 Second derivative matrix not updated -- first step.
 The second derivative matrix:
                          R1        R2        R3        R4        R5
           R1           0.95060
           R2           0.00000   0.33469
           R3           0.00000   0.00000   0.53200
           R4           0.00000   0.00000   0.00000   0.46015
           R5           0.00000   0.00000   0.00000   0.00000   0.45697
           A1           0.00000   0.00000   0.00000   0.00000   0.00000
           A2           0.00000   0.00000   0.00000   0.00000   0.00000
           A3           0.00000   0.00000   0.00000   0.00000   0.00000
           A4           0.00000   0.00000   0.00000   0.00000   0.00000
           A5           0.00000   0.00000   0.00000   0.00000   0.00000
           A6           0.00000   0.00000   0.00000   0.00000   0.00000
           D1           0.00000   0.00000   0.00000   0.00000   0.00000
           D2           0.00000   0.00000   0.00000   0.00000   0.00000
           D3           0.00000   0.00000   0.00000   0.00000   0.00000
           D4           0.00000   0.00000   0.00000   0.00000   0.00000
                          A1        A2        A3        A4        A5
           A1           0.16000
           A2           0.00000   0.25000
           A3           0.00000   0.00000   0.16000
           A4           0.00000   0.00000   0.00000   0.16000
           A5           0.00000   0.00000   0.00000   0.00000   0.16000
           A6           0.00000   0.00000   0.00000   0.00000   0.00000
           D1           0.00000   0.00000   0.00000   0.00000   0.00000
           D2           0.00000   0.00000   0.00000   0.00000   0.00000
           D3           0.00000   0.00000   0.00000   0.00000   0.00000
           D4           0.00000   0.00000   0.00000   0.00000   0.00000
                          A6        D1        D2        D3        D4
           A6           0.16000
           D1           0.00000   0.02237
           D2           0.00000   0.00000   0.02237
           D3           0.00000   0.00000   0.00000   0.02237
           D4           0.00000   0.00000   0.00000   0.00000   0.02237
 ITU=  0
     Eigenvalues ---    0.02237   0.02237   0.02237   0.16000   0.16000
     Eigenvalues ---    0.16000   0.22000   0.33469   0.45697   0.46015
     Eigenvalues ---    0.53200   0.95060
 RFO step:  Lambda=-6.36710545D-04 EMin= 2.23734802D-02
 Linear search not attempted -- first point.
 Iteration  1 RMS(Cart)=  0.01501336 RMS(Int)=  0.00017007
 Iteration  2 RMS(Cart)=  0.00018639 RMS(Int)=  0.00000002
 Iteration  3 RMS(Cart)=  0.00000002 RMS(Int)=  0.00000000
 ITry= 1 IFail=0 DXMaxC= 3.22D-02 DCOld= 1.00D+10 DXMaxT= 3.00D-01 DXLimC= 3.00D+00 Rises=F
 Variable       Old X    -DE/DX   Delta X   Delta X   Delta X     New X
                                 (Linear)    (Quad)   (Total)
    R1        2.30685  -0.01647   0.00000  -0.01731  -0.01731   2.28954
    R2        2.08235  -0.00008   0.00000  -0.00024  -0.00024   2.08211
    R3        2.56768  -0.00271   0.00000  -0.00509  -0.00509   2.56259
    R4        1.90815  -0.00479   0.00000  -0.01040  -0.01040   1.89774
    R5        1.91175  -0.00395   0.00000  -0.00862  -0.00862   1.90313
    A1        2.15819  -0.00383   0.00000  -0.01943  -0.01943   2.13876
    A2        2.15138   0.00519   0.00000   0.02352   0.02352   2.17490
    A3        1.97361  -0.00136   0.00000  -0.00409  -0.00409   1.96952
    A4        2.14127  -0.00211   0.00000  -0.01312  -0.01312   2.12815
    A5        2.06108   0.00197   0.00000   0.01227   0.01227   2.07335
    A6        2.08083   0.00014   0.00000   0.00085   0.00085   2.08168
    D1       -3.14158  -0.00000   0.00000  -0.00000  -0.00000  -3.14159
    D2       -0.00000  -0.00000   0.00000  -0.00000  -0.00000  -0.00001
    D3        0.00001   0.00000   0.00000   0.00000   0.00000   0.00001
    D4        3.14159   0.00000   0.00000   0.00000   0.00000   3.14159
         Item               Value     Threshold  Converged?
 Maximum Force            0.016468     0.000450     NO 
 RMS     Force            0.004959     0.000300     NO 
 Maximum Displacement     0.032185     0.001800     NO 
 RMS     Displacement     0.014967     0.001200     NO 
 Predicted change in Energy=-3.189226D-04
 Lowest energy point so far.  Saving SCF results.
 GradGradGradGradGradGradGradGradGradGradGradGradGradGradGradGradGradGrad

 Leave Link  103 at Tue Jan 26 00:25:32 2021, MaxMem=  6291456000 cpu:               3.6 elap:               0.3
 (Enter /home/orgChemistry/bin/gaussian16-C.01/g16/l202.exe)
                          Input orientation:                          
 ---------------------------------------------------------------------
 Center     Atomic      Atomic             Coordinates (Angstroms)
 Number     Number       Type             X           Y           Z
 ---------------------------------------------------------------------
      1          6           0       -2.840585    3.449909    0.516672
      2          8           0       -2.303170    2.368422    0.614020
      3          1           0       -2.953204    4.134929    1.372264
      4          7           0       -3.362831    3.950062   -0.630506
      5          1           0       -3.800198    4.853384   -0.665471
      6          1           0       -3.308561    3.396415   -1.470008
 ---------------------------------------------------------------------
                    Distance matrix (angstroms):
                    1          2          3          4          5
     1  C    0.000000
     2  O    1.211571   0.000000
     3  H    1.101804   2.029292   0.000000
     4  N    1.356066   2.274491   2.052573   0.000000
     5  H    2.070763   3.170681   2.320762   1.004242   0.000000
     6  H    2.041754   2.531946   2.958072   1.007092   1.735438
                    6
     6  H    0.000000
 Stoichiometry    CH3NO
 Framework group  C1[X(CH3NO)]
 Deg. of freedom    12
 Full point group                 C1      NOp   1
 RotChk:  IX=0 Diff= 1.43D-02
 Largest Abelian subgroup         C1      NOp   1
 Largest concise Abelian subgroup C1      NOp   1
                         Standard orientation:                         
 ---------------------------------------------------------------------
 Center     Atomic      Atomic             Coordinates (Angstroms)
 Number     Number       Type             X           Y           Z
 ---------------------------------------------------------------------
      1          6           0       -0.160625    0.388942    0.000001
      2          8           0       -1.192090   -0.246655   -0.000000
      3          1           0       -0.143312    1.490610   -0.000002
      4          7           0        1.080639   -0.157116   -0.000001
      5          1           0        1.910041    0.409094    0.000003
      6          1           0        1.169266   -1.160301    0.000002
 ---------------------------------------------------------------------
 Rotational constants (GHZ):          73.5354703          11.4094891           9.8770092
 Leave Link  202 at Tue Jan 26 00:25:32 2021, MaxMem=  6291456000 cpu:               1.0 elap:               0.1
 (Enter /home/orgChemistry/bin/gaussian16-C.01/g16/l301.exe)
 Standard basis: 6-311++G(3df,3pd) (5D, 7F)
 Ernie: Thresh=  0.10000D-02 Tol=  0.10000D-05 Strict=F.
 There are   192 symmetry adapted cartesian basis functions of A   symmetry.
 There are   171 symmetry adapted basis functions of A   symmetry.
   171 basis functions,   237 primitive gaussians,   192 cartesian basis functions
    12 alpha electrons       12 beta electrons
       nuclear repulsion energy        71.3300448257 Hartrees.
 IExCor=  402 DFT=T Ex+Corr=B3LYP ExCW=0 ScaHFX=  0.200000
 ScaDFX=  0.800000  0.720000  1.000000  0.810000 ScalE2=  1.000000  1.000000
 IRadAn=      5 IRanWt=     -1 IRanGd=            0 ICorTp=0 IEmpDi=  4
 NAtoms=    6 NActive=    6 NUniq=    6 SFac= 1.00D+00 NAtFMM=   60 NAOKFM=F Big=F
 Integral buffers will be    131072 words long.
 Raffenetti 2 integral format.
 Two-electron integral symmetry is turned on.
 Leave Link  301 at Tue Jan 26 00:25:32 2021, MaxMem=  6291456000 cpu:               1.4 elap:               0.1
 (Enter /home/orgChemistry/bin/gaussian16-C.01/g16/l302.exe)
 NPDir=0 NMtPBC=     1 NCelOv=     1 NCel=       1 NClECP=     1 NCelD=      1
         NCelK=      1 NCelE2=     1 NClLst=     1 CellRange=     0.0.
 One-electron integrals computed using PRISM.
 One-electron integral symmetry used in STVInt
 NBasis=   171 RedAO= T EigKep=  2.25D-04  NBF=   171
 NBsUse=   171 1.00D-06 EigRej= -1.00D+00 NBFU=   171
 Precomputing XC quadrature grid using
 IXCGrd= 4 IRadAn=           5 IRanWt=          -1 IRanGd=           0 AccXCQ= 0.00D+00.
 Generated NRdTot=       0 NPtTot=           0 NUsed=           0 NTot=          32
 NSgBfM=   192   192   192   192   192 MxSgAt=     6 MxSgA2=     6.
 Leave Link  302 at Tue Jan 26 00:25:32 2021, MaxMem=  6291456000 cpu:               4.5 elap:               0.2
 (Enter /home/orgChemistry/bin/gaussian16-C.01/g16/l303.exe)
 DipDrv:  MaxL=1.
 Leave Link  303 at Tue Jan 26 00:25:33 2021, MaxMem=  6291456000 cpu:               0.6 elap:               0.1
 (Enter /home/orgChemistry/bin/gaussian16-C.01/g16/l401.exe)
 Initial guess from the checkpoint file:  "file_name.chk"
 B after Tr=    -0.000000    0.000000    0.000000
         Rot=    0.999998    0.000000    0.000000   -0.001945 Ang=   0.22 deg.
 Guess basis will be translated and rotated to current coordinates.
 JPrj=2 DoOrth=T DoCkMO=T.
 Generating alternative initial guess.
 ExpMin= 3.60D-02 ExpMax= 8.59D+03 ExpMxC= 1.30D+03 IAcc=3 IRadAn=         5 AccDes= 0.00D+00
 Harris functional with IExCor=  402 and IRadAn=       5 diagonalized for initial guess.
 HarFok:  IExCor=  402 AccDes= 0.00D+00 IRadAn=         5 IDoV= 1 UseB2=F ITyADJ=14
 ICtDFT=  3500011 ScaDFX=  1.000000  1.000000  1.000000  1.000000
 FoFCou: FMM=F IPFlag=           0 FMFlag=      100000 FMFlg1=           0
         NFxFlg=           0 DoJE=T BraDBF=F KetDBF=T FulRan=T
         wScrn=  0.000000 ICntrl=       500 IOpCl=  0 I1Cent=   200000004 NGrid=           0
         NMat0=    1 NMatS0=      1 NMatT0=    0 NMatD0=    1 NMtDS0=    0 NMtDT0=    0
 Petite list used in FoFCou.
 Harris En= -169.989582972338    
 Leave Link  401 at Tue Jan 26 00:25:33 2021, MaxMem=  6291456000 cpu:               6.9 elap:               0.3
 (Enter /home/orgChemistry/bin/gaussian16-C.01/g16/l502.exe)
 Keep R1 ints in memory in canonical form, NReq=132662971.
 FoFCou: FMM=F IPFlag=           0 FMFlag=           0 FMFlg1=           0
         NFxFlg=           0 DoJE=F BraDBF=F KetDBF=F FulRan=T
         wScrn=  0.000000 ICntrl=       600 IOpCl=  0 I1Cent=           0 NGrid=           0
         NMat0=    1 NMatS0=  14706 NMatT0=    0 NMatD0=    1 NMtDS0=    0 NMtDT0=    0
 Symmetry not used in FoFCou.
 Two-electron integral symmetry not used.
 Closed shell SCF:
 Using DIIS extrapolation, IDIIS=  1040.
 NGot=  6291456000 LenX=  6183235241 LenY=  6183197936
 Requested convergence on RMS density matrix=1.00D-08 within 128 cycles.
 Requested convergence on MAX density matrix=1.00D-06.
 Requested convergence on             energy=1.00D-06.
 No special actions if energy rises.

 Cycle   1  Pass 1  IDiag  1:
 E= -169.966730715713    
 DIIS: error= 1.62D-03 at cycle   1 NSaved=   1.
 NSaved= 1 IEnMin= 1 EnMin= -169.966730715713     IErMin= 1 ErrMin= 1.62D-03
 ErrMax= 1.62D-03  0.00D+00 EMaxC= 1.00D-01 BMatC= 4.96D-04 BMatP= 4.96D-04
 IDIUse=3 WtCom= 9.84D-01 WtEn= 1.62D-02
 Coeff-Com:  0.100D+01
 Coeff-En:   0.100D+01
 Coeff:      0.100D+01
 Gap=     0.442 Goal=   None    Shift=    0.000
 GapD=    0.442 DampG=2.000 DampE=1.000 DampFc=2.0000 IDamp=-1.
 RMSDP=1.46D-04 MaxDP=3.24D-03              OVMax= 5.99D-03

 Cycle   2  Pass 1  IDiag  1:
 E= -169.967031496231     Delta-E=       -0.000300780518 Rises=F Damp=F
 DIIS: error= 3.04D-04 at cycle   2 NSaved=   2.
 NSaved= 2 IEnMin= 2 EnMin= -169.967031496231     IErMin= 2 ErrMin= 3.04D-04
 ErrMax= 3.04D-04  0.00D+00 EMaxC= 1.00D-01 BMatC= 1.74D-05 BMatP= 4.96D-04
 IDIUse=3 WtCom= 9.97D-01 WtEn= 3.04D-03
 Coeff-Com:  0.327D-01 0.967D+00
 Coeff-En:   0.000D+00 0.100D+01
 Coeff:      0.326D-01 0.967D+00
 Gap=     0.254 Goal=   None    Shift=    0.000
 RMSDP=3.04D-05 MaxDP=1.40D-03 DE=-3.01D-04 OVMax= 2.22D-03

 Cycle   3  Pass 1  IDiag  1:
 E= -169.967027524628     Delta-E=        0.000003971603 Rises=F Damp=F
 DIIS: error= 4.43D-04 at cycle   3 NSaved=   3.
 NSaved= 3 IEnMin= 2 EnMin= -169.967031496231     IErMin= 2 ErrMin= 3.04D-04
 ErrMax= 4.43D-04  0.00D+00 EMaxC= 1.00D-01 BMatC= 2.18D-05 BMatP= 1.74D-05
 IDIUse=3 WtCom= 3.22D-01 WtEn= 6.78D-01
 Coeff-Com: -0.105D-01 0.534D+00 0.477D+00
 Coeff-En:   0.000D+00 0.564D+00 0.436D+00
 Coeff:     -0.339D-02 0.555D+00 0.449D+00
 Gap=     0.254 Goal=   None    Shift=    0.000
 RMSDP=1.60D-05 MaxDP=8.72D-04 DE= 3.97D-06 OVMax= 1.41D-03

 Cycle   4  Pass 1  IDiag  1:
 E= -169.967044241092     Delta-E=       -0.000016716465 Rises=F Damp=F
 DIIS: error= 4.72D-05 at cycle   4 NSaved=   4.
 NSaved= 4 IEnMin= 4 EnMin= -169.967044241092     IErMin= 4 ErrMin= 4.72D-05
 ErrMax= 4.72D-05  0.00D+00 EMaxC= 1.00D-01 BMatC= 4.77D-07 BMatP= 1.74D-05
 IDIUse=1 WtCom= 1.00D+00 WtEn= 0.00D+00
 Coeff-Com: -0.678D-02 0.174D+00 0.182D+00 0.651D+00
 Coeff:     -0.678D-02 0.174D+00 0.182D+00 0.651D+00
 Gap=     0.255 Goal=   None    Shift=    0.000
 RMSDP=3.63D-06 MaxDP=9.86D-05 DE=-1.67D-05 OVMax= 3.51D-04

 Cycle   5  Pass 1  IDiag  1:
 E= -169.967044438502     Delta-E=       -0.000000197410 Rises=F Damp=F
 DIIS: error= 4.65D-05 at cycle   5 NSaved=   5.
 NSaved= 5 IEnMin= 5 EnMin= -169.967044438502     IErMin= 5 ErrMin= 4.65D-05
 ErrMax= 4.65D-05  0.00D+00 EMaxC= 1.00D-01 BMatC= 1.95D-07 BMatP= 4.77D-07
 IDIUse=1 WtCom= 1.00D+00 WtEn= 0.00D+00
 Coeff-Com: -0.283D-02 0.592D-01 0.725D-01 0.420D+00 0.451D+00
 Coeff:     -0.283D-02 0.592D-01 0.725D-01 0.420D+00 0.451D+00
 Gap=     0.254 Goal=   None    Shift=    0.000
 RMSDP=1.94D-06 MaxDP=6.16D-05 DE=-1.97D-07 OVMax= 2.04D-04

 Cycle   6  Pass 1  IDiag  1:
 E= -169.967044576100     Delta-E=       -0.000000137598 Rises=F Damp=F
 DIIS: error= 1.77D-05 at cycle   6 NSaved=   6.
 NSaved= 6 IEnMin= 6 EnMin= -169.967044576100     IErMin= 6 ErrMin= 1.77D-05
 ErrMax= 1.77D-05  0.00D+00 EMaxC= 1.00D-01 BMatC= 2.15D-08 BMatP= 1.95D-07
 IDIUse=1 WtCom= 1.00D+00 WtEn= 0.00D+00
 Coeff-Com: -0.715D-03 0.951D-02 0.167D-01 0.164D+00 0.293D+00 0.517D+00
 Coeff:     -0.715D-03 0.951D-02 0.167D-01 0.164D+00 0.293D+00 0.517D+00
 Gap=     0.254 Goal=   None    Shift=    0.000
 RMSDP=5.33D-07 MaxDP=2.53D-05 DE=-1.38D-07 OVMax= 4.77D-05

 Cycle   7  Pass 1  IDiag  1:
 E= -169.967044590930     Delta-E=       -0.000000014830 Rises=F Damp=F
 DIIS: error= 3.12D-06 at cycle   7 NSaved=   7.
 NSaved= 7 IEnMin= 7 EnMin= -169.967044590930     IErMin= 7 ErrMin= 3.12D-06
 ErrMax= 3.12D-06  0.00D+00 EMaxC= 1.00D-01 BMatC= 9.38D-10 BMatP= 2.15D-08
 IDIUse=1 WtCom= 1.00D+00 WtEn= 0.00D+00
 Coeff-Com: -0.261D-04-0.321D-02-0.878D-03 0.271D-01 0.982D-01 0.240D+00
 Coeff-Com:  0.639D+00
 Coeff:     -0.261D-04-0.321D-02-0.878D-03 0.271D-01 0.982D-01 0.240D+00
 Coeff:      0.639D+00
 Gap=     0.254 Goal=   None    Shift=    0.000
 RMSDP=1.16D-07 MaxDP=6.35D-06 DE=-1.48D-08 OVMax= 1.05D-05

 Cycle   8  Pass 1  IDiag  1:
 E= -169.967044591780     Delta-E=       -0.000000000850 Rises=F Damp=F
 DIIS: error= 3.07D-07 at cycle   8 NSaved=   8.
 NSaved= 8 IEnMin= 8 EnMin= -169.967044591780     IErMin= 8 ErrMin= 3.07D-07
 ErrMax= 3.07D-07  0.00D+00 EMaxC= 1.00D-01 BMatC= 7.85D-12 BMatP= 9.38D-10
 IDIUse=1 WtCom= 1.00D+00 WtEn= 0.00D+00
 Coeff-Com:  0.101D-04-0.843D-03-0.552D-03 0.565D-03 0.140D-01 0.284D-01
 Coeff-Com:  0.111D+00 0.847D+00
 Coeff:      0.101D-04-0.843D-03-0.552D-03 0.565D-03 0.140D-01 0.284D-01
 Coeff:      0.111D+00 0.847D+00
 Gap=     0.254 Goal=   None    Shift=    0.000
 RMSDP=1.50D-08 MaxDP=3.59D-07 DE=-8.50D-10 OVMax= 9.59D-07

 Cycle   9  Pass 1  IDiag  1:
 E= -169.967044591787     Delta-E=       -0.000000000008 Rises=F Damp=F
 DIIS: error= 2.96D-08 at cycle   9 NSaved=   9.
 NSaved= 9 IEnMin= 9 EnMin= -169.967044591787     IErMin= 9 ErrMin= 2.96D-08
 ErrMax= 2.96D-08  0.00D+00 EMaxC= 1.00D-01 BMatC= 7.24D-14 BMatP= 7.85D-12
 IDIUse=1 WtCom= 1.00D+00 WtEn= 0.00D+00
 Coeff-Com:  0.209D-05-0.644D-04-0.606D-04-0.387D-03 0.152D-03 0.385D-03
 Coeff-Com:  0.556D-02 0.127D+00 0.867D+00
 Coeff:      0.209D-05-0.644D-04-0.606D-04-0.387D-03 0.152D-03 0.385D-03
 Coeff:      0.556D-02 0.127D+00 0.867D+00
 Gap=     0.254 Goal=   None    Shift=    0.000
 RMSDP=1.84D-09 MaxDP=4.12D-08 DE=-7.96D-12 OVMax= 1.30D-07

 SCF Done:  E(RB3LYP) =  -169.967044592     A.U. after    9 cycles
            NFock=  9  Conv=0.18D-08     -V/T= 2.0040
 KE= 1.692915505970D+02 PE=-5.413983623904D+02 EE= 1.308097223760D+02
 Leave Link  502 at Tue Jan 26 00:25:36 2021, MaxMem=  6291456000 cpu:              39.6 elap:               3.1
 (Enter /home/orgChemistry/bin/gaussian16-C.01/g16/l701.exe)
 ... and contract with generalized density number  0.
 Compute integral first derivatives.
 Leave Link  701 at Tue Jan 26 00:25:36 2021, MaxMem=  6291456000 cpu:               7.4 elap:               0.4
 (Enter /home/orgChemistry/bin/gaussian16-C.01/g16/l702.exe)
 L702 exits ... SP integral derivatives will be done elsewhere.
 Leave Link  702 at Tue Jan 26 00:25:37 2021, MaxMem=  6291456000 cpu:               0.7 elap:               0.1
 (Enter /home/orgChemistry/bin/gaussian16-C.01/g16/l703.exe)
 Integral derivatives from FoFJK, PRISM(SPDF).
 Compute integral first derivatives, UseDBF=F ICtDFT=           0.
 Calling FoFJK, ICntrl=      2127 FMM=F ISym2X=0 I1Cent= 0 IOpClX= 0 NMat=1 NMatS=1 NMatT=0.
 FoFJK:  IHMeth= 1 ICntrl=    2127 DoSepK=F KAlg= 0 I1Cent=           0 FoldK=F
 IRaf=         0 NMat=       1 IRICut=       1 DoRegI=T DoRafI=F ISym2E= 0 IDoP0=0 IntGTp=1.
 FoFCou: FMM=F IPFlag=           0 FMFlag=      100000 FMFlg1=         800
         NFxFlg=           0 DoJE=F BraDBF=F KetDBF=F FulRan=T
         wScrn=  0.000000 ICntrl=      2127 IOpCl=  0 I1Cent=           0 NGrid=           0
         NMat0=    1 NMatS0=      1 NMatT0=    0 NMatD0=    1 NMtDS0=    0 NMtDT0=    0
 Symmetry not used in FoFCou.
 Leave Link  703 at Tue Jan 26 00:25:38 2021, MaxMem=  6291456000 cpu:              23.3 elap:               1.0
 (Enter /home/orgChemistry/bin/gaussian16-C.01/g16/l716.exe)
 Dipole        = 1.52075994D+00 3.56851178D-01 4.42534376D-06
 ***** Axes restored to original set *****
 -------------------------------------------------------------------
 Center     Atomic                   Forces (Hartrees/Bohr)
 Number     Number              X              Y              Z
 -------------------------------------------------------------------
      1        6           0.001585646   -0.003394436   -0.000098783
      2        8          -0.001398786    0.002879979   -0.000130077
      3        1          -0.000277749    0.000897341    0.000595398
      4        7           0.000273142   -0.000891148   -0.000603898
      5        1           0.000124807    0.000046821    0.000591992
      6        1          -0.000307060    0.000461443   -0.000354632
 -------------------------------------------------------------------
 Cartesian Forces:  Max     0.003394436 RMS     0.001237954
 Leave Link  716 at Tue Jan 26 00:25:38 2021, MaxMem=  6291456000 cpu:               0.7 elap:               0.1
 (Enter /home/orgChemistry/bin/gaussian16-C.01/g16/l103.exe)

 GradGradGradGradGradGradGradGradGradGradGradGradGradGradGradGradGradGrad
 Berny optimization.
 Using GEDIIS/GDIIS optimizer.
 FormGI is forming the generalized inverse of G from B-inverse, IUseBI=4.
 Internal  Forces:  Max     0.003201549 RMS     0.000995498
 Search for a local minimum.
 Step number   2 out of a maximum of   25
 All quantities printed in internal units (Hartrees-Bohrs-Radians)
 RMS Force = .99550D-03 SwitMx=.10000D-02 MixMth= 2
 Mixed Optimization -- En-DIIS/RFO-DIIS
 Update second derivatives using D2CorX and points    1    2
 DE= -3.68D-04 DEPred=-3.19D-04 R= 1.15D+00
 TightC=F SS=  1.41D+00  RLast= 4.22D-02 DXNew= 5.0454D-01 1.2654D-01
 Trust test= 1.15D+00 RLast= 4.22D-02 DXMaxT set to 3.00D-01
 The second derivative matrix:
                          R1        R2        R3        R4        R5
           R1           0.84952
           R2           0.02558   0.33704
           R3          -0.00041   0.00559   0.53540
           R4          -0.00730   0.00932   0.00462   0.46596
           R5          -0.00473   0.00778   0.00407   0.00524   0.46166
           A1           0.01712   0.00792   0.00768   0.01162   0.00995
           A2           0.03628  -0.00913   0.00018   0.00267   0.00174
           A3           0.00141   0.00148   0.00115   0.00166   0.00144
           A4          -0.03173   0.00166  -0.00409  -0.00769  -0.00624
           A5           0.03239  -0.00132   0.00440   0.00817   0.00665
           A6          -0.00065  -0.00034  -0.00031  -0.00047  -0.00041
           D1           0.00001   0.00000   0.00000   0.00000   0.00000
           D2           0.00001   0.00000   0.00000   0.00000   0.00000
           D3          -0.00001  -0.00000  -0.00000  -0.00000  -0.00000
           D4          -0.00001  -0.00000  -0.00000  -0.00000  -0.00000
                          A1        A2        A3        A4        A5
           A1           0.17411
           A2          -0.00607   0.23698
           A3           0.00231  -0.00050   0.16036
           A4          -0.00347   0.01135  -0.00088   0.15464
           A5           0.00406  -0.01158   0.00098   0.00520   0.15498
           A6          -0.00059   0.00023  -0.00010   0.00016  -0.00018
           D1           0.00000  -0.00000   0.00000   0.00000  -0.00000
           D2           0.00000  -0.00000   0.00000   0.00000  -0.00000
           D3          -0.00000   0.00000  -0.00000  -0.00000   0.00000
           D4          -0.00000   0.00000  -0.00000  -0.00000   0.00000
                          A6        D1        D2        D3        D4
           A6           0.16002
           D1          -0.00000   0.02237
           D2          -0.00000   0.00000   0.02237
           D3           0.00000  -0.00000  -0.00000   0.02237
           D4           0.00000  -0.00000  -0.00000   0.00000   0.02237
 ITU=  1  0
 Use linear search instead of GDIIS.
     Eigenvalues ---    0.02237   0.02237   0.02237   0.14183   0.16000
     Eigenvalues ---    0.16343   0.22179   0.33583   0.45816   0.47083
     Eigenvalues ---    0.53650   0.85467
 RFO step:  Lambda=-2.89959707D-05 EMin= 2.23734802D-02
 Quartic linear search produced a step of  0.17182.
 Iteration  1 RMS(Cart)=  0.00621435 RMS(Int)=  0.00002628
 Iteration  2 RMS(Cart)=  0.00002679 RMS(Int)=  0.00000000
 Iteration  3 RMS(Cart)=  0.00000000 RMS(Int)=  0.00000000
 ITry= 1 IFail=0 DXMaxC= 1.24D-02 DCOld= 1.00D+10 DXMaxT= 3.00D-01 DXLimC= 3.00D+00 Rises=F
 Variable       Old X    -DE/DX   Delta X   Delta X   Delta X     New X
                                 (Linear)    (Quad)   (Total)
    R1        2.28954  -0.00320  -0.00297  -0.00174  -0.00471   2.28482
    R2        2.08211   0.00105  -0.00004   0.00370   0.00366   2.08577
    R3        2.56259   0.00013  -0.00087   0.00095   0.00008   2.56267
    R4        1.89774  -0.00003  -0.00179   0.00126  -0.00053   1.89721
    R5        1.90313   0.00003  -0.00148   0.00118  -0.00030   1.90282
    A1        2.13876   0.00016  -0.00334   0.00419   0.00086   2.13962
    A2        2.17490   0.00046   0.00404  -0.00068   0.00336   2.17826
    A3        1.96952  -0.00061  -0.00070  -0.00351  -0.00422   1.96531
    A4        2.12815  -0.00118  -0.00225  -0.00691  -0.00916   2.11899
    A5        2.07335   0.00122   0.00211   0.00727   0.00938   2.08273
    A6        2.08168  -0.00003   0.00015  -0.00036  -0.00022   2.08146
    D1       -3.14159   0.00000  -0.00000   0.00001   0.00001  -3.14158
    D2       -0.00001   0.00000  -0.00000   0.00001   0.00001   0.00000
    D3        0.00001  -0.00000   0.00000  -0.00001  -0.00001  -0.00000
    D4        3.14159  -0.00000   0.00000  -0.00001  -0.00001   3.14158
         Item               Value     Threshold  Converged?
 Maximum Force            0.003202     0.000450     NO 
 RMS     Force            0.000995     0.000300     NO 
 Maximum Displacement     0.012395     0.001800     NO 
 RMS     Displacement     0.006214     0.001200     NO 
 Predicted change in Energy=-2.299222D-05
 Lowest energy point so far.  Saving SCF results.
 GradGradGradGradGradGradGradGradGradGradGradGradGradGradGradGradGradGrad

 Leave Link  103 at Tue Jan 26 00:25:38 2021, MaxMem=  6291456000 cpu:               2.3 elap:               0.1
 (Enter /home/orgChemistry/bin/gaussian16-C.01/g16/l202.exe)
                          Input orientation:                          
 ---------------------------------------------------------------------
 Center     Atomic      Atomic             Coordinates (Angstroms)
 Number     Number       Type             X           Y           Z
 ---------------------------------------------------------------------
      1          6           0       -2.839853    3.447924    0.515856
      2          8           0       -2.302698    2.369554    0.618076
      3          1           0       -2.955293    4.137924    1.369565
      4          7           0       -3.361754    3.947016   -0.631988
      5          1           0       -3.797482    4.851095   -0.658911
      6          1           0       -3.311470    3.399607   -1.475626
 ---------------------------------------------------------------------
                    Distance matrix (angstroms):
                    1          2          3          4          5
     1  C    0.000000
     2  O    1.209077   0.000000
     3  H    1.103741   2.029224   0.000000
     4  N    1.356105   2.274346   2.051310   0.000000
     5  H    2.065434   3.165931   2.309244   1.003962   0.000000
     6  H    2.047134   2.542089   2.960926   1.006931   1.734949
                    6
     6  H    0.000000
 Stoichiometry    CH3NO
 Framework group  C1[X(CH3NO)]
 Deg. of freedom    12
 Full point group                 C1      NOp   1
 RotChk:  IX=0 Diff= 4.03D-03
 Largest Abelian subgroup         C1      NOp   1
 Largest concise Abelian subgroup C1      NOp   1
                         Standard orientation:                         
 ---------------------------------------------------------------------
 Center     Atomic      Atomic             Coordinates (Angstroms)
 Number     Number       Type             X           Y           Z
 ---------------------------------------------------------------------
      1          6           0       -0.161729    0.386623   -0.000004
      2          8           0       -1.192000   -0.246155    0.000001
      3          1           0       -0.141823    1.490185    0.000006
      4          7           0        1.080602   -0.157100   -0.000001
      5          1           0        1.903466    0.418083    0.000008
      6          1           0        1.180513   -1.159062    0.000002
 ---------------------------------------------------------------------
 Rotational constants (GHZ):          73.7754249          11.4095778           9.8813926
 Leave Link  202 at Tue Jan 26 00:25:38 2021, MaxMem=  6291456000 cpu:               1.7 elap:               0.1
 (Enter /home/orgChemistry/bin/gaussian16-C.01/g16/l301.exe)
 Standard basis: 6-311++G(3df,3pd) (5D, 7F)
 Ernie: Thresh=  0.10000D-02 Tol=  0.10000D-05 Strict=F.
 There are   192 symmetry adapted cartesian basis functions of A   symmetry.
 There are   171 symmetry adapted basis functions of A   symmetry.
   171 basis functions,   237 primitive gaussians,   192 cartesian basis functions
    12 alpha electrons       12 beta electrons
       nuclear repulsion energy        71.3676331900 Hartrees.
 IExCor=  402 DFT=T Ex+Corr=B3LYP ExCW=0 ScaHFX=  0.200000
 ScaDFX=  0.800000  0.720000  1.000000  0.810000 ScalE2=  1.000000  1.000000
 IRadAn=      5 IRanWt=     -1 IRanGd=            0 ICorTp=0 IEmpDi=  4
 NAtoms=    6 NActive=    6 NUniq=    6 SFac= 1.00D+00 NAtFMM=   60 NAOKFM=F Big=F
 Integral buffers will be    131072 words long.
 Raffenetti 2 integral format.
 Two-electron integral symmetry is turned on.
 Leave Link  301 at Tue Jan 26 00:25:38 2021, MaxMem=  6291456000 cpu:               1.4 elap:               0.1
 (Enter /home/orgChemistry/bin/gaussian16-C.01/g16/l302.exe)
 NPDir=0 NMtPBC=     1 NCelOv=     1 NCel=       1 NClECP=     1 NCelD=      1
         NCelK=      1 NCelE2=     1 NClLst=     1 CellRange=     0.0.
 One-electron integrals computed using PRISM.
 One-electron integral symmetry used in STVInt
 NBasis=   171 RedAO= T EigKep=  2.25D-04  NBF=   171
 NBsUse=   171 1.00D-06 EigRej= -1.00D+00 NBFU=   171
 Precomputing XC quadrature grid using
 IXCGrd= 4 IRadAn=           5 IRanWt=          -1 IRanGd=           0 AccXCQ= 0.00D+00.
 Generated NRdTot=       0 NPtTot=           0 NUsed=           0 NTot=          32
 NSgBfM=   192   192   192   192   192 MxSgAt=     6 MxSgA2=     6.
 Leave Link  302 at Tue Jan 26 00:25:38 2021, MaxMem=  6291456000 cpu:               3.8 elap:               0.2
 (Enter /home/orgChemistry/bin/gaussian16-C.01/g16/l303.exe)
 DipDrv:  MaxL=1.
 Leave Link  303 at Tue Jan 26 00:25:38 2021, MaxMem=  6291456000 cpu:               0.6 elap:               0.1
 (Enter /home/orgChemistry/bin/gaussian16-C.01/g16/l401.exe)
 Initial guess from the checkpoint file:  "file_name.chk"
 B after Tr=     0.000000    0.000000    0.000000
         Rot=    1.000000    0.000000    0.000000   -0.000541 Ang=   0.06 deg.
 Guess basis will be translated and rotated to current coordinates.
 JPrj=2 DoOrth=T DoCkMO=T.
 Leave Link  401 at Tue Jan 26 00:25:38 2021, MaxMem=  6291456000 cpu:               2.4 elap:               0.1
 (Enter /home/orgChemistry/bin/gaussian16-C.01/g16/l502.exe)
 Keep R1 ints in memory in canonical form, NReq=132662971.
 FoFCou: FMM=F IPFlag=           0 FMFlag=           0 FMFlg1=           0
         NFxFlg=           0 DoJE=F BraDBF=F KetDBF=F FulRan=T
         wScrn=  0.000000 ICntrl=       600 IOpCl=  0 I1Cent=           0 NGrid=           0
         NMat0=    1 NMatS0=  14706 NMatT0=    0 NMatD0=    1 NMtDS0=    0 NMtDT0=    0
 Symmetry not used in FoFCou.
 Two-electron integral symmetry not used.
 Closed shell SCF:
 Using DIIS extrapolation, IDIIS=  1040.
 NGot=  6291456000 LenX=  6183235241 LenY=  6183197936
 Requested convergence on RMS density matrix=1.00D-08 within 128 cycles.
 Requested convergence on MAX density matrix=1.00D-06.
 Requested convergence on             energy=1.00D-06.
 No special actions if energy rises.

 Cycle   1  Pass 1  IDiag  1:
 E= -169.967039084867    
 DIIS: error= 6.66D-04 at cycle   1 NSaved=   1.
 NSaved= 1 IEnMin= 1 EnMin= -169.967039084867     IErMin= 1 ErrMin= 6.66D-04
 ErrMax= 6.66D-04  0.00D+00 EMaxC= 1.00D-01 BMatC= 6.04D-05 BMatP= 6.04D-05
 IDIUse=3 WtCom= 9.93D-01 WtEn= 6.66D-03
 Coeff-Com:  0.100D+01
 Coeff-En:   0.100D+01
 Coeff:      0.100D+01
 Gap=     0.443 Goal=   None    Shift=    0.000
 RMSDP=3.86D-05 MaxDP=7.93D-04              OVMax= 1.54D-03

 Cycle   2  Pass 1  IDiag  1:
 E= -169.967069473571     Delta-E=       -0.000030388703 Rises=F Damp=F
 DIIS: error= 7.99D-05 at cycle   2 NSaved=   2.
 NSaved= 2 IEnMin= 2 EnMin= -169.967069473571     IErMin= 2 ErrMin= 7.99D-05
 ErrMax= 7.99D-05  0.00D+00 EMaxC= 1.00D-01 BMatC= 1.43D-06 BMatP= 6.04D-05
 IDIUse=1 WtCom= 1.00D+00 WtEn= 0.00D+00
 Coeff-Com:  0.195D-01 0.981D+00
 Coeff:      0.195D-01 0.981D+00
 Gap=     0.254 Goal=   None    Shift=    0.000
 RMSDP=9.84D-06 MaxDP=4.15D-04 DE=-3.04D-05 OVMax= 7.82D-04

 Cycle   3  Pass 1  IDiag  1:
 E= -169.967067770505     Delta-E=        0.000001703065 Rises=F Damp=F
 DIIS: error= 2.04D-04 at cycle   3 NSaved=   3.
 NSaved= 3 IEnMin= 2 EnMin= -169.967069473571     IErMin= 2 ErrMin= 7.99D-05
 ErrMax= 2.04D-04  0.00D+00 EMaxC= 1.00D-01 BMatC= 3.78D-06 BMatP= 1.43D-06
 IDIUse=3 WtCom= 4.12D-01 WtEn= 5.88D-01
 Coeff-Com: -0.920D-02 0.633D+00 0.377D+00
 Coeff-En:   0.000D+00 0.712D+00 0.288D+00
 Coeff:     -0.379D-02 0.680D+00 0.324D+00
 Gap=     0.255 Goal=   None    Shift=    0.000
 RMSDP=6.49D-06 MaxDP=2.18D-04 DE= 1.70D-06 OVMax= 6.17D-04

 Cycle   4  Pass 1  IDiag  1:
 E= -169.967070401745     Delta-E=       -0.000002631239 Rises=F Damp=F
 DIIS: error= 2.16D-05 at cycle   4 NSaved=   4.
 NSaved= 4 IEnMin= 4 EnMin= -169.967070401745     IErMin= 4 ErrMin= 2.16D-05
 ErrMax= 2.16D-05  0.00D+00 EMaxC= 1.00D-01 BMatC= 4.71D-08 BMatP= 1.43D-06
 IDIUse=1 WtCom= 1.00D+00 WtEn= 0.00D+00
 Coeff-Com: -0.610D-02 0.204D+00 0.121D+00 0.681D+00
 Coeff:     -0.610D-02 0.204D+00 0.121D+00 0.681D+00
 Gap=     0.255 Goal=   None    Shift=    0.000
 RMSDP=1.13D-06 MaxDP=4.26D-05 DE=-2.63D-06 OVMax= 9.51D-05

 Cycle   5  Pass 1  IDiag  1:
 E= -169.967070429853     Delta-E=       -0.000000028109 Rises=F Damp=F
 DIIS: error= 9.54D-06 at cycle   5 NSaved=   5.
 NSaved= 5 IEnMin= 5 EnMin= -169.967070429853     IErMin= 5 ErrMin= 9.54D-06
 ErrMax= 9.54D-06  0.00D+00 EMaxC= 1.00D-01 BMatC= 1.19D-08 BMatP= 4.71D-08
 IDIUse=1 WtCom= 1.00D+00 WtEn= 0.00D+00
 Coeff-Com: -0.236D-02 0.584D-01 0.364D-01 0.362D+00 0.546D+00
 Coeff:     -0.236D-02 0.584D-01 0.364D-01 0.362D+00 0.546D+00
 Gap=     0.255 Goal=   None    Shift=    0.000
 RMSDP=4.20D-07 MaxDP=2.22D-05 DE=-2.81D-08 OVMax= 3.40D-05

 Cycle   6  Pass 1  IDiag  1:
 E= -169.967070439128     Delta-E=       -0.000000009275 Rises=F Damp=F
 DIIS: error= 2.36D-06 at cycle   6 NSaved=   6.
 NSaved= 6 IEnMin= 6 EnMin= -169.967070439128     IErMin= 6 ErrMin= 2.36D-06
 ErrMax= 2.36D-06  0.00D+00 EMaxC= 1.00D-01 BMatC= 5.59D-10 BMatP= 1.19D-08
 IDIUse=1 WtCom= 1.00D+00 WtEn= 0.00D+00
 Coeff-Com: -0.245D-03-0.112D-03 0.479D-03 0.825D-01 0.224D+00 0.693D+00
 Coeff:     -0.245D-03-0.112D-03 0.479D-03 0.825D-01 0.224D+00 0.693D+00
 Gap=     0.255 Goal=   None    Shift=    0.000
 RMSDP=1.08D-07 MaxDP=4.49D-06 DE=-9.27D-09 OVMax= 7.56D-06

 Cycle   7  Pass 1  IDiag  1:
 E= -169.967070439467     Delta-E=       -0.000000000338 Rises=F Damp=F
 DIIS: error= 7.34D-07 at cycle   7 NSaved=   7.
 NSaved= 7 IEnMin= 7 EnMin= -169.967070439467     IErMin= 7 ErrMin= 7.34D-07
 ErrMax= 7.34D-07  0.00D+00 EMaxC= 1.00D-01 BMatC= 8.39D-11 BMatP= 5.59D-10
 IDIUse=1 WtCom= 1.00D+00 WtEn= 0.00D+00
 Coeff-Com:  0.496D-05-0.379D-02-0.272D-02 0.175D-01 0.756D-01 0.370D+00
 Coeff-Com:  0.543D+00
 Coeff:      0.496D-05-0.379D-02-0.272D-02 0.175D-01 0.756D-01 0.370D+00
 Coeff:      0.543D+00
 Gap=     0.255 Goal=   None    Shift=    0.000
 RMSDP=3.82D-08 MaxDP=1.90D-06 DE=-3.38D-10 OVMax= 2.82D-06

 Cycle   8  Pass 1  IDiag  1:
 E= -169.967070439545     Delta-E=       -0.000000000078 Rises=F Damp=F
 DIIS: error= 8.99D-08 at cycle   8 NSaved=   8.
 NSaved= 8 IEnMin= 8 EnMin= -169.967070439545     IErMin= 8 ErrMin= 8.99D-08
 ErrMax= 8.99D-08  0.00D+00 EMaxC= 1.00D-01 BMatC= 9.13D-13 BMatP= 8.39D-11
 IDIUse=1 WtCom= 1.00D+00 WtEn= 0.00D+00
 Coeff-Com:  0.140D-04-0.122D-02-0.108D-02 0.143D-02 0.125D-01 0.796D-01
 Coeff-Com:  0.147D+00 0.762D+00
 Coeff:      0.140D-04-0.122D-02-0.108D-02 0.143D-02 0.125D-01 0.796D-01
 Coeff:      0.147D+00 0.762D+00
 Gap=     0.255 Goal=   None    Shift=    0.000
 RMSDP=4.31D-09 MaxDP=8.06D-08 DE=-7.81D-11 OVMax= 2.72D-07

 SCF Done:  E(RB3LYP) =  -169.967070440     A.U. after    8 cycles
            NFock=  8  Conv=0.43D-08     -V/T= 2.0039
 KE= 1.692990593441D+02 PE=-5.414764924036D+02 EE= 1.308427294299D+02
 Leave Link  502 at Tue Jan 26 00:25:41 2021, MaxMem=  6291456000 cpu:              34.1 elap:               2.6
 (Enter /home/orgChemistry/bin/gaussian16-C.01/g16/l701.exe)
 ... and contract with generalized density number  0.
 Compute integral first derivatives.
 Leave Link  701 at Tue Jan 26 00:25:41 2021, MaxMem=  6291456000 cpu:               3.0 elap:               0.2
 (Enter /home/orgChemistry/bin/gaussian16-C.01/g16/l702.exe)
 L702 exits ... SP integral derivatives will be done elsewhere.
 Leave Link  702 at Tue Jan 26 00:25:41 2021, MaxMem=  6291456000 cpu:               0.5 elap:               0.0
 (Enter /home/orgChemistry/bin/gaussian16-C.01/g16/l703.exe)
 Integral derivatives from FoFJK, PRISM(SPDF).
 Compute integral first derivatives, UseDBF=F ICtDFT=           0.
 Calling FoFJK, ICntrl=      2127 FMM=F ISym2X=0 I1Cent= 0 IOpClX= 0 NMat=1 NMatS=1 NMatT=0.
 FoFJK:  IHMeth= 1 ICntrl=    2127 DoSepK=F KAlg= 0 I1Cent=           0 FoldK=F
 IRaf=         0 NMat=       1 IRICut=       1 DoRegI=T DoRafI=F ISym2E= 0 IDoP0=0 IntGTp=1.
 FoFCou: FMM=F IPFlag=           0 FMFlag=      100000 FMFlg1=         800
         NFxFlg=           0 DoJE=F BraDBF=F KetDBF=F FulRan=T
         wScrn=  0.000000 ICntrl=      2127 IOpCl=  0 I1Cent=           0 NGrid=           0
         NMat0=    1 NMatS0=      1 NMatT0=    0 NMatD0=    1 NMtDS0=    0 NMtDT0=    0
 Symmetry not used in FoFCou.
 Leave Link  703 at Tue Jan 26 00:25:42 2021, MaxMem=  6291456000 cpu:              23.0 elap:               1.0
 (Enter /home/orgChemistry/bin/gaussian16-C.01/g16/l716.exe)
 Dipole        = 1.51669216D+00 3.54174845D-01 5.37577478D-06
 ***** Axes restored to original set *****
 -------------------------------------------------------------------
 Center     Atomic                   Forces (Hartrees/Bohr)
 Number     Number              X              Y              Z
 -------------------------------------------------------------------
      1        6           0.000218318   -0.000257724    0.000376430
      2        8           0.000116745   -0.000221144    0.000051476
      3        1          -0.000132133    0.000262951   -0.000026179
      4        7          -0.000016893   -0.000151766   -0.000355904
      5        1          -0.000109243    0.000270038    0.000076753
      6        1          -0.000076794    0.000097646   -0.000122576
 -------------------------------------------------------------------
 Cartesian Forces:  Max     0.000376430 RMS     0.000194286
 Leave Link  716 at Tue Jan 26 00:25:42 2021, MaxMem=  6291456000 cpu:               0.8 elap:               0.1
 (Enter /home/orgChemistry/bin/gaussian16-C.01/g16/l103.exe)

 GradGradGradGradGradGradGradGradGradGradGradGradGradGradGradGradGradGrad
 Berny optimization.
 Using GEDIIS/GDIIS optimizer.
 FormGI is forming the generalized inverse of G from B-inverse, IUseBI=4.
 Internal  Forces:  Max     0.000497601 RMS     0.000223898
 Search for a local minimum.
 Step number   3 out of a maximum of   25
 All quantities printed in internal units (Hartrees-Bohrs-Radians)
 RMS Force = .22390D-03 SwitMx=.10000D-02 MixMth= 2
 Mixed Optimization -- En-DIIS/RFO-DIIS
 Swapping is turned off.
 Update second derivatives using D2CorX and points    1    2    3
 DE= -2.58D-05 DEPred=-2.30D-05 R= 1.12D+00
 TightC=F SS=  1.41D+00  RLast= 1.54D-02 DXNew= 5.0454D-01 4.6250D-02
 Trust test= 1.12D+00 RLast= 1.54D-02 DXMaxT set to 3.00D-01
 The second derivative matrix:
                          R1        R2        R3        R4        R5
           R1           0.94108
           R2           0.02467   0.33305
           R3           0.04891  -0.00365   0.54256
           R4           0.02676   0.00405   0.01211   0.47253
           R5           0.00383   0.00690   0.00704   0.00746   0.46227
           A1           0.03051   0.00574   0.01048   0.01409   0.01077
           A2           0.03911  -0.01228  -0.00537  -0.00019   0.00147
           A3          -0.02757   0.00988   0.00357   0.00095   0.00024
           A4          -0.03108   0.00665   0.00729  -0.00126  -0.00522
           A5           0.03648  -0.00732  -0.00654   0.00232   0.00589
           A6          -0.00540   0.00066  -0.00075  -0.00105  -0.00067
           D1          -0.00008   0.00002  -0.00001  -0.00001  -0.00000
           D2          -0.00007   0.00001  -0.00001  -0.00001  -0.00000
           D3           0.00006  -0.00001   0.00001   0.00001   0.00000
           D4           0.00007  -0.00001   0.00001   0.00001   0.00000
                          A1        A2        A3        A4        A5
           A1           0.17501
           A2          -0.00720   0.23441
           A3           0.00216   0.00521   0.15278
           A4          -0.00084   0.01536  -0.01133   0.14836
           A5           0.00164  -0.01622   0.01189   0.01272   0.14624
           A6          -0.00080   0.00086  -0.00056  -0.00108   0.00104
           D1          -0.00000   0.00001  -0.00000  -0.00002   0.00002
           D2          -0.00000   0.00001  -0.00000  -0.00002   0.00002
           D3           0.00000  -0.00001   0.00000   0.00001  -0.00001
           D4           0.00000  -0.00001   0.00000   0.00002  -0.00002
                          A6        D1        D2        D3        D4
           A6           0.16004
           D1           0.00000   0.02237
           D2           0.00000   0.00000   0.02237
           D3          -0.00000  -0.00000  -0.00000   0.02237
           D4          -0.00000  -0.00000  -0.00000   0.00000   0.02237
 ITU=  1  1  0
     Eigenvalues ---    0.02237   0.02237   0.02237   0.11452   0.16003
     Eigenvalues ---    0.16420   0.22018   0.33438   0.45844   0.47396
     Eigenvalues ---    0.53975   0.95534
 En-DIIS/RFO-DIIS/Sim-DIIS IScMMF=       -3 using points:     3    2
 RFO step:  Lambda=-3.39518642D-06.
 NNeg= 0 NGDIIS= 2 SimSw=  2.50D-03 Rises=F DC= -2.58D-05 SmlDif=  1.00D-05
 NRisDI= 0 DoIntr=F SqrtH=F CThrHd= 10.0 CDAdj=  3.0
 RMS Error=  0.1263272850D-02 NUsed= 2 OKEnD=T EnDIS=F
 InvSVX:  RCond= 5.94D-05 Info=           0 Equed=N FErr=  1.56D-15 BErr=  1.64D-17
 DidBck=F Rises=F RFO-DIIS coefs:    1.27089   -0.27089
 Iteration  1 RMS(Cart)=  0.00212439 RMS(Int)=  0.00000287
 Iteration  2 RMS(Cart)=  0.00000291 RMS(Int)=  0.00000000
 Iteration  3 RMS(Cart)=  0.00000000 RMS(Int)=  0.00000000
 ITry= 1 IFail=0 DXMaxC= 3.38D-03 DCOld= 1.00D+10 DXMaxT= 3.00D-01 DXLimC= 3.00D+00 Rises=F
 Variable       Old X    -DE/DX   Delta X   Delta X   Delta X     New X
                                 (Linear)    (Quad)   (Total)
    R1        2.28482   0.00025  -0.00128   0.00111  -0.00017   2.28466
    R2        2.08577   0.00016   0.00099  -0.00028   0.00071   2.08648
    R3        2.56267   0.00050   0.00002   0.00098   0.00100   2.56366
    R4        1.89721   0.00029  -0.00014   0.00069   0.00054   1.89776
    R5        1.90282   0.00005  -0.00008   0.00006  -0.00002   1.90280
    A1        2.13962   0.00015   0.00023   0.00083   0.00106   2.14068
    A2        2.17826   0.00022   0.00091   0.00070   0.00161   2.17987
    A3        1.96531  -0.00037  -0.00114  -0.00154  -0.00268   1.96263
    A4        2.11899  -0.00022  -0.00248   0.00032  -0.00216   2.11683
    A5        2.08273   0.00027   0.00254  -0.00001   0.00253   2.08526
    A6        2.08146  -0.00005  -0.00006  -0.00031  -0.00037   2.08110
    D1       -3.14158  -0.00000   0.00000  -0.00005  -0.00004   3.14156
    D2        0.00000  -0.00000   0.00000  -0.00004  -0.00004  -0.00003
    D3       -0.00000   0.00000  -0.00000   0.00004   0.00003   0.00003
    D4        3.14158   0.00000  -0.00000   0.00004   0.00004  -3.14157
         Item               Value     Threshold  Converged?
 Maximum Force            0.000498     0.000450     NO 
 RMS     Force            0.000224     0.000300     YES
 Maximum Displacement     0.003377     0.001800     NO 
 RMS     Displacement     0.002125     0.001200     NO 
 Predicted change in Energy=-1.697627D-06
 Lowest energy point so far.  Saving SCF results.
 GradGradGradGradGradGradGradGradGradGradGradGradGradGradGradGradGradGrad

 Leave Link  103 at Tue Jan 26 00:25:42 2021, MaxMem=  6291456000 cpu:               1.6 elap:               0.1
 (Enter /home/orgChemistry/bin/gaussian16-C.01/g16/l202.exe)
                          Input orientation:                          
 ---------------------------------------------------------------------
 Center     Atomic      Atomic             Coordinates (Angstroms)
 Number     Number       Type             X           Y           Z
 ---------------------------------------------------------------------
      1          6           0       -2.839377    3.446965    0.515839
      2          8           0       -2.301992    2.368981    0.619863
      3          1           0       -2.956205    4.139077    1.368134
      4          7           0       -3.361526    3.946332   -0.632397
      5          1           0       -3.796967    4.850930   -0.657134
      6          1           0       -3.312482    3.400836   -1.477334
 ---------------------------------------------------------------------
                    Distance matrix (angstroms):
                    1          2          3          4          5
     1  C    0.000000
     2  O    1.208988   0.000000
     3  H    1.104118   2.030060   0.000000
     4  N    1.356633   2.275698   2.050259   0.000000
     5  H    2.064937   3.166345   2.305500   1.004250   0.000000
     6  H    2.049071   2.546379   2.961186   1.006920   1.735000
                    6
     6  H    0.000000
 Stoichiometry    CH3NO
 Framework group  C1[X(CH3NO)]
 Deg. of freedom    12
 Full point group                 C1      NOp   1
 RotChk:  IX=2 Diff= 8.04D-04
 Largest Abelian subgroup         C1      NOp   1
 Largest concise Abelian subgroup C1      NOp   1
                         Standard orientation:                         
 ---------------------------------------------------------------------
 Center     Atomic      Atomic             Coordinates (Angstroms)
 Number     Number       Type             X           Y           Z
 ---------------------------------------------------------------------
      1          6           0       -0.162032    0.385923    0.000012
      2          8           0       -1.192839   -0.245812   -0.000004
      3          1           0       -0.139875    1.489818   -0.000021
      4          7           0        1.081134   -0.157210   -0.000001
      5          1           0        1.902616    0.420445   -0.000011
      6          1           0        1.184224   -1.158839    0.000002
 ---------------------------------------------------------------------
 Rotational constants (GHZ):          73.8645878          11.3958012           9.8726521
 Leave Link  202 at Tue Jan 26 00:25:42 2021, MaxMem=  6291456000 cpu:               0.5 elap:               0.1
 (Enter /home/orgChemistry/bin/gaussian16-C.01/g16/l301.exe)
 Standard basis: 6-311++G(3df,3pd) (5D, 7F)
 Ernie: Thresh=  0.10000D-02 Tol=  0.10000D-05 Strict=F.
 There are   192 symmetry adapted cartesian basis functions of A   symmetry.
 There are   171 symmetry adapted basis functions of A   symmetry.
   171 basis functions,   237 primitive gaussians,   192 cartesian basis functions
    12 alpha electrons       12 beta electrons
       nuclear repulsion energy        71.3493983780 Hartrees.
 IExCor=  402 DFT=T Ex+Corr=B3LYP ExCW=0 ScaHFX=  0.200000
 ScaDFX=  0.800000  0.720000  1.000000  0.810000 ScalE2=  1.000000  1.000000
 IRadAn=      5 IRanWt=     -1 IRanGd=            0 ICorTp=0 IEmpDi=  4
 NAtoms=    6 NActive=    6 NUniq=    6 SFac= 1.00D+00 NAtFMM=   60 NAOKFM=F Big=F
 Integral buffers will be    131072 words long.
 Raffenetti 2 integral format.
 Two-electron integral symmetry is turned on.
 Leave Link  301 at Tue Jan 26 00:25:43 2021, MaxMem=  6291456000 cpu:               1.3 elap:               0.1
 (Enter /home/orgChemistry/bin/gaussian16-C.01/g16/l302.exe)
 NPDir=0 NMtPBC=     1 NCelOv=     1 NCel=       1 NClECP=     1 NCelD=      1
         NCelK=      1 NCelE2=     1 NClLst=     1 CellRange=     0.0.
 One-electron integrals computed using PRISM.
 One-electron integral symmetry used in STVInt
 NBasis=   171 RedAO= T EigKep=  2.25D-04  NBF=   171
 NBsUse=   171 1.00D-06 EigRej= -1.00D+00 NBFU=   171
 Precomputing XC quadrature grid using
 IXCGrd= 4 IRadAn=           5 IRanWt=          -1 IRanGd=           0 AccXCQ= 0.00D+00.
 Generated NRdTot=       0 NPtTot=           0 NUsed=           0 NTot=          32
[...]
 
 ***** Axes restored to original set *****
 -------------------------------------------------------------------
 Center     Atomic                   Forces (Hartrees/Bohr)
 Number     Number              X              Y              Z
 -------------------------------------------------------------------
      1        6          -0.000016923    0.000129683    0.000214400
      2        8           0.000039104   -0.000108957   -0.000064145
      3        1          -0.000010618    0.000010951   -0.000033426
      4        7           0.000020317   -0.000075857   -0.000071069
      5        1          -0.000013945    0.000034050    0.000007154
      6        1          -0.000017935    0.000010130   -0.000052914
 -------------------------------------------------------------------
 Cartesian Forces:  Max     0.000214400 RMS     0.000073705
 Force constants in Cartesian coordinates: 
                1             2             3             4             5 
      1  0.353292D+00
      2 -0.304168D+00  0.846997D+00
      3  0.910950D-01  0.376935D-01  0.625190D+00
      4 -0.195864D+00  0.250302D+00 -0.180921D-01  0.191196D+00
      5  0.248773D+00 -0.587891D+00  0.170627D-01 -0.313141D+00  0.660535D+00
      6 -0.210166D-01  0.232255D-01 -0.112840D+00  0.431407D-01 -0.596470D-01
      7 -0.616119D-01  0.909812D-02  0.151708D-01  0.107228D-01  0.236551D-01
      8  0.673165D-02 -0.128942D+00 -0.102626D+00  0.200663D-01 -0.351598D-01
      9  0.106485D-01 -0.931011D-01 -0.196111D+00  0.320327D-02 -0.910044D-02
     10 -0.890396D-01  0.502800D-01 -0.842669D-01 -0.738540D-02  0.389409D-01
     11  0.545780D-01 -0.137279D+00  0.419947D-01  0.414795D-01 -0.375853D-01
     12 -0.760533D-01  0.246884D-01 -0.303315D+00 -0.263353D-01  0.489819D-01
     13 -0.114458D-01  0.677325D-02  0.670291D-02  0.566330D-02  0.261703D-02
     14 -0.127138D-02 -0.869676D-02 -0.282685D-02  0.285911D-02  0.324641D-02
     15 -0.866818D-02  0.295632D-01  0.116933D-01 -0.412346D-02  0.137150D-02
     16  0.466908D-02 -0.122857D-01 -0.106096D-01 -0.433217D-02 -0.845362D-03
     17 -0.464360D-02  0.158120D-01  0.870197D-02 -0.156646D-02 -0.314531D-02
     18  0.399462D-02 -0.220696D-01 -0.246169D-01  0.220684D-02  0.133125D-02
                6             7             8             9            10 
      6  0.916197D-01
      7  0.100624D-01  0.375494D-01
      8 -0.235550D-01 -0.300756D-01  0.150974D+00
      9  0.149572D-01 -0.908173D-02  0.118624D+00  0.215669D+00
     10 -0.311858D-01  0.101741D-01  0.134577D-02 -0.152430D-02  0.195416D+00
     11  0.592037D-01 -0.497289D-02  0.118512D-01 -0.187640D-01 -0.306591D+00
     12  0.639572D-02 -0.136002D-01  0.667947D-02 -0.308071D-01  0.130618D+00
     13 -0.458508D-02 -0.878443D-03 -0.108497D-02  0.145026D-03 -0.867685D-01
     14  0.234451D-02 -0.741971D-03  0.220949D-03  0.166120D-03  0.179358D+00
     15 -0.593923D-02  0.800494D-03 -0.121477D-02 -0.527818D-03 -0.169948D-01
     16  0.358441D-02  0.404404D-02  0.301685D-02 -0.339082D-02 -0.223964D-01
     17 -0.157168D-02  0.303732D-02  0.105587D-02  0.217521D-02  0.366666D-01
     18  0.580676D-02 -0.335173D-02  0.209222D-02 -0.317981D-02  0.335341D-02
               11            12            13            14            15 
     11  0.715850D+00
     12  0.100011D+00  0.734555D+00
     13  0.179414D+00 -0.168862D-01  0.963226D-01
     14 -0.377246D+00 -0.359638D-02 -0.183042D+00  0.389866D+00
     15 -0.336792D-02 -0.722958D-01  0.147761D-01 -0.309031D-02  0.593782D-01
     16  0.360922D-01  0.225649D-02 -0.289316D-02  0.283762D-02  0.142099D-01
     17 -0.175590D+00 -0.176765D+00 -0.467827D-02 -0.739031D-02 -0.232617D-01
     18 -0.179078D+00 -0.334533D+00 -0.152750D-03  0.700292D-02  0.769137D-02
               16            17            18 
     16  0.209087D-01
     17 -0.288156D-01  0.169258D+00
     18 -0.605038D-02  0.190721D+00  0.348832D+00
 FormGI is forming the generalized inverse of G from B-inverse, IUseBI=4.
 Force constants in internal coordinates: 
                1             2             3             4             5 
      1  0.824258D+00
      2  0.339646D-01  0.308526D+00
      3  0.864512D-01  0.167311D-01  0.444474D+00
      4 -0.110231D-02  0.548279D-03  0.366685D-02  0.477911D+00
      5 -0.135660D-02 -0.489165D-03  0.790348D-02 -0.282357D-02  0.470767D+00
      6  0.106070D-01  0.139271D-02 -0.311098D-01 -0.302512D-02  0.939522D-03
      7  0.325974D-01 -0.155483D-01  0.199592D-01  0.718155D-02 -0.783080D-02
      8 -0.432044D-01  0.141556D-01  0.111506D-01 -0.415642D-02  0.689127D-02
      9  0.358565D-02  0.817555D-04  0.920078D-02  0.341496D-02 -0.104209D-01
     10 -0.178121D-03  0.224914D-02  0.308010D-02 -0.899708D-02  0.766798D-02
     11 -0.340753D-02 -0.233090D-02 -0.122809D-01  0.558212D-02  0.275287D-02
     12  0.176894D-05  0.000000D+00  0.119791D-05  0.000000D+00  0.000000D+00
     13  0.160488D-05  0.000000D+00  0.162711D-05  0.000000D+00  0.000000D+00
     14 -0.142049D-05  0.000000D+00 -0.137406D-05  0.000000D+00  0.000000D+00
     15 -0.158455D-05  0.000000D+00  0.000000D+00  0.000000D+00  0.000000D+00
                6             7             8             9            10 
      6  0.118596D+00
      7 -0.843250D-01  0.168204D+00
      8 -0.342707D-01 -0.838788D-01  0.118150D+00
      9 -0.601924D-02  0.207467D-01 -0.147275D-01  0.775109D-01
     10  0.416338D-02 -0.223389D-01  0.181755D-01 -0.405490D-01  0.750424D-01
     11  0.185585D-02  0.159216D-02 -0.344802D-02 -0.369619D-01 -0.344935D-01
     12 -0.170375D-05  0.317286D-05  0.114686D-05  0.000000D+00  0.000000D+00
     13 -0.164501D-05  0.303202D-05  0.000000D+00  0.000000D+00  0.000000D+00
     14  0.145727D-05 -0.217850D-05 -0.135509D-05  0.000000D+00  0.000000D+00
     15  0.151601D-05 -0.231934D-05 -0.157957D-05  0.000000D+00  0.000000D+00
               11            12            13            14            15 
     11  0.714554D-01
     12  0.000000D+00  0.305305D-01
     13  0.000000D+00  0.272731D-01  0.270359D-01
     14  0.000000D+00 -0.178872D-01 -0.154706D-01  0.205426D-01
     15  0.000000D+00 -0.211447D-01 -0.157077D-01  0.229593D-01  0.283962D-01
 Leave Link  716 at Tue Jan 26 00:26:26 2021, MaxMem=  6291456000 cpu:               4.3 elap:               0.2
 (Enter /home/orgChemistry/bin/gaussian16-C.01/g16/l103.exe)

 GradGradGradGradGradGradGradGradGradGradGradGradGradGradGradGradGradGrad
 Berny optimization.
 Red2BG is reusing G-inverse.
 Internal  Forces:  Max     0.000109129 RMS     0.000054115
 Search for a local minimum.
 Step number   1 out of a maximum of    2
 All quantities printed in internal units (Hartrees-Bohrs-Radians)
 Second derivative matrix not updated -- analytic derivatives used.
 The second derivative matrix:
                          R1        R2        R3        R4        R5
           R1           0.82426
           R2           0.03396   0.30853
           R3           0.08645   0.01673   0.44447
           R4          -0.00110   0.00055   0.00367   0.47791
           R5          -0.00136  -0.00049   0.00790  -0.00282   0.47077
           A1           0.01061   0.00139  -0.03111  -0.00303   0.00094
           A2           0.03260  -0.01555   0.01996   0.00718  -0.00783
           A3          -0.04320   0.01416   0.01115  -0.00416   0.00689
           A4           0.00359   0.00008   0.00920   0.00341  -0.01042
           A5          -0.00018   0.00225   0.00308  -0.00900   0.00767
           A6          -0.00341  -0.00233  -0.01228   0.00558   0.00275
           D1           0.00000   0.00000   0.00000  -0.00000  -0.00000
           D2           0.00000   0.00000   0.00000   0.00000   0.00000
           D3          -0.00000  -0.00000  -0.00000  -0.00000  -0.00000
           D4          -0.00000  -0.00000  -0.00000   0.00000   0.00000
                          A1        A2        A3        A4        A5
           A1           0.11860
           A2          -0.08432   0.16820
           A3          -0.03427  -0.08388   0.11815
           A4          -0.00602   0.02075  -0.01473   0.07751
           A5           0.00416  -0.02234   0.01818  -0.04055   0.07504
           A6           0.00186   0.00159  -0.00345  -0.03696  -0.03449
           D1          -0.00000   0.00000   0.00000  -0.00000   0.00000
           D2          -0.00000   0.00000   0.00000  -0.00000   0.00000
           D3           0.00000  -0.00000  -0.00000  -0.00000   0.00000
           D4           0.00000  -0.00000  -0.00000  -0.00000   0.00000
                          A6        D1        D2        D3        D4
           A6           0.07146
           D1          -0.00000   0.03053
           D2          -0.00000   0.02727   0.02704
           D3           0.00000  -0.01789  -0.01547   0.02054
           D4          -0.00000  -0.02114  -0.01571   0.02296   0.02840
 ITU=  0
     Eigenvalues ---    0.00221   0.01682   0.08747   0.10123   0.10857
     Eigenvalues ---    0.14888   0.24750   0.31482   0.43150   0.47217
     Eigenvalues ---    0.48020   0.85003
 Angle between quadratic step and forces=  33.56 degrees.
 Linear search not attempted -- first point.
 Iteration  1 RMS(Cart)=  0.00019341 RMS(Int)=  0.00000003
 Iteration  2 RMS(Cart)=  0.00000003 RMS(Int)=  0.00000000
 ITry= 1 IFail=0 DXMaxC= 3.74D-04 DCOld= 1.00D+10 DXMaxT= 3.00D-01 DXLimC= 3.00D+00 Rises=F
 Variable       Old X    -DE/DX   Delta X   Delta X   Delta X     New X
                                 (Linear)    (Quad)   (Total)
    R1        2.28466   0.00011   0.00000   0.00012   0.00012   2.28477
    R2        2.08648  -0.00002   0.00000  -0.00010  -0.00010   2.08638
    R3        2.56366   0.00009   0.00000   0.00023   0.00023   2.56389
    R4        1.89776   0.00004   0.00000   0.00010   0.00010   1.89785
    R5        1.90280   0.00004   0.00000   0.00006   0.00006   1.90286
    A1        2.14068   0.00008   0.00000   0.00043   0.00043   2.14111
    A2        2.17987  -0.00009   0.00000  -0.00034  -0.00034   2.17953
    A3        1.96263   0.00001   0.00000  -0.00008  -0.00008   1.96255
    A4        2.11683  -0.00004   0.00000  -0.00026  -0.00026   2.11657
    A5        2.08526   0.00006   0.00000   0.00045   0.00045   2.08571
    A6        2.08110  -0.00002   0.00000  -0.00019  -0.00019   2.08090
    D1        3.14156   0.00000   0.00000   0.00003   0.00003  -3.14159
    D2       -0.00003   0.00000   0.00000   0.00003   0.00003  -0.00000
    D3        0.00003  -0.00000   0.00000  -0.00003  -0.00003   0.00000
    D4       -3.14157  -0.00000   0.00000  -0.00003  -0.00003   3.14159
         Item               Value     Threshold  Converged?
 Maximum Force            0.000109     0.000450     YES
 RMS     Force            0.000054     0.000300     YES
 Maximum Displacement     0.000374     0.001800     YES
 RMS     Displacement     0.000193     0.001200     YES
 Predicted change in Energy=-7.376938D-08
 Optimization completed.
    -- Stationary point found.
                           ----------------------------
                           !   Optimized Parameters   !
                           ! (Angstroms and Degrees)  !
 --------------------------                            --------------------------
 ! Name  Definition              Value          Derivative Info.                !
 --------------------------------------------------------------------------------
 ! R1    R(1,2)                  1.209          -DE/DX =    0.0001              !
 ! R2    R(1,3)                  1.1041         -DE/DX =    0.0                 !
 ! R3    R(1,4)                  1.3566         -DE/DX =    0.0001              !
 ! R4    R(4,5)                  1.0043         -DE/DX =    0.0                 !
 ! R5    R(4,6)                  1.0069         -DE/DX =    0.0                 !
 ! A1    A(2,1,3)              122.6521         -DE/DX =    0.0001              !
 ! A2    A(2,1,4)              124.8975         -DE/DX =   -0.0001              !
 ! A3    A(3,1,4)              112.4504         -DE/DX =    0.0                 !
 ! A4    A(1,4,5)              121.2854         -DE/DX =    0.0                 !
 ! A5    A(1,4,6)              119.4766         -DE/DX =    0.0001              !
 ! A6    A(5,4,6)              119.238          -DE/DX =    0.0                 !
 ! D1    D(2,1,4,5)           -180.0016         -DE/DX =    0.0                 !
 ! D2    D(2,1,4,6)             -0.0019         -DE/DX =    0.0                 !
 ! D3    D(3,1,4,5)              0.0018         -DE/DX =    0.0                 !
 ! D4    D(3,1,4,6)            180.0015         -DE/DX =    0.0                 !
 --------------------------------------------------------------------------------
 GradGradGradGradGradGradGradGradGradGradGradGradGradGradGradGradGradGrad

 Leave Link  103 at Tue Jan 26 00:26:26 2021, MaxMem=  6291456000 cpu:               1.1 elap:               0.1
 (Enter /home/orgChemistry/bin/gaussian16-C.01/g16/l9999.exe)

 ----------------------------------------------------------------------

 Electric dipole moment (input orientation):
 (Debye = 10**-18 statcoulomb cm , SI units = C m)
                  (au)            (Debye)         (10**-30 SI)
   Tot        0.155749D+01      0.395875D+01      0.132050D+02
   x         -0.735178D+00     -0.186864D+01     -0.623310D+01
   y          0.123278D+01      0.313340D+01      0.104519D+02
   z         -0.604615D+00     -0.153678D+01     -0.512614D+01

 Dipole polarizability, Alpha (input orientation).
 (esu units = cm**3 , SI units = C**2 m**2 J**-1)
 Alpha(0;0):
               (au)            (10**-24 esu)      (10**-40 SI)
   iso        0.276499D+02      0.409730D+01      0.455886D+01
   aniso      0.137512D+02      0.203771D+01      0.226726D+01
   xx         0.232703D+02      0.344830D+01      0.383676D+01
   yx        -0.568008D+01     -0.841701D+00     -0.936518D+00
   yy         0.305859D+02      0.453236D+01      0.504293D+01
   zx         0.334422D+01      0.495562D+00      0.551387D+00
   zy        -0.215450D+01     -0.319264D+00     -0.355230D+00
   zz         0.290936D+02      0.431123D+01      0.479689D+01

 ----------------------------------------------------------------------

 Dipole orientation:
     6         -3.21146357         -2.90160357          7.31008902
     8         -2.99999321         -2.21275425          5.14204391
     1         -3.80504594         -4.83464680          7.82428929
     7         -2.76160712         -1.43636521          9.36510331
     1         -2.97026088         -2.11587296         11.12471103
     1         -2.20755499          0.36812010          9.12526962

 Electric dipole moment (dipole orientation):
 (Debye = 10**-18 statcoulomb cm , SI units = C m)
                  (au)            (Debye)         (10**-30 SI)
   Tot        0.155749D+01      0.395875D+01      0.132050D+02
   x          0.000000D+00      0.000000D+00      0.000000D+00
   y          0.000000D+00      0.000000D+00      0.000000D+00
   z          0.155749D+01      0.395875D+01      0.132050D+02

 Dipole polarizability, Alpha (dipole orientation).
 (esu units = cm**3 , SI units = C**2 m**2 J**-1)
 Alpha(0;0):
               (au)            (10**-24 esu)      (10**-40 SI)
   iso        0.276499D+02      0.409730D+01      0.455886D+01
   aniso      0.137512D+02      0.203771D+01      0.226726D+01
   xx         0.204280D+02      0.302712D+01      0.336812D+01
   yx         0.222685D+01      0.329985D+00      0.367158D+00
   yy         0.269968D+02      0.400052D+01      0.445118D+01
   zx         0.258127D+00      0.382505D-01      0.425594D-01
   zy         0.840666D+00      0.124574D+00      0.138607D+00
   zz         0.355249D+02      0.526425D+01      0.585727D+01

 ----------------------------------------------------------------------
 Unable to Open any file for archive entry.
 1\1\GINC-NODE2-130\Freq\RB3LYP\6-311++G(3df,3pd)\C1H3N1O1\RUTHM\26-Jan
 -2021\0\\#P Geom=AllCheck Guess=TCheck SCRF=Check GenChk RB3LYP/6-311+
 +G(3df,3pd) Freq\\title\\0,1\C,-2.8393767348,3.446964634,0.5158388596\
 O,-2.3019923232,2.3689810668,0.6198630718\H,-2.9562051076,4.1390769899
 ,1.3681341408\N,-3.3615256552,3.9463318156,-0.6323972705\H,-3.79696737
 98,4.8509298053,-0.657134337\H,-3.3124818231,3.400836212,-1.4773337433
 \\Version=ES64L-G16RevC.01\State=1-A\HF=-169.9670722\RMSD=3.538e-09\RM
 SF=7.370e-05\ZeroPoint=0.0452751\Thermal=0.0490204\ETot=-169.9180519\H
 Tot=-169.9171077\GTot=-169.9463196\Dipole=-0.735178,1.2327755,-0.60461
 49\DipoleDeriv=0.6120943,-0.6209762,0.4303774,-0.622241,1.3210659,-0.3
 833713,0.4279646,-0.3782783,1.210961,-0.6113844,0.3661489,-0.1936082,0
 .4324907,-1.1396686,0.3080402,-0.066874,0.0409759,-0.5805223,0.074708,
 0.0593254,0.0205213,0.0604204,-0.1030133,-0.1403845,0.0226239,-0.14483
 6,-0.0879091,-0.6352588,0.0731252,-0.1953012,0.0052712,-0.4361374,0.24
 27482,-0.3249455,0.5159499,-0.874584,0.2892624,0.0542278,-0.0358431,0.
 0600816,0.1883354,-0.0171205,-0.0246506,-0.0407016,0.1468607,0.2705785
 ,0.0681489,-0.0261463,0.0639771,0.169418,-0.009912,-0.0341183,0.006890
 1,0.1851937\Polar=23.270309,-5.6800768,30.5858911,3.3442161,-2.1545028
 ,29.0935926\Quadrupole=-1.0020457,-0.6203472,1.622393,0.0023932,0.2592
 859,0.8601252\PG=C01 [X(C1H3N1O1)]\NImag=0\\0.35329233,-0.30416768,0.8
 4699707,0.09109496,0.03769350,0.62518984,-0.19586421,0.25030206,-0.018
 09213,0.19119569,0.24877300,-0.58789121,0.01706273,-0.31314060,0.66053
 525,-0.02101664,0.02322553,-0.11284008,0.04314074,-0.05964697,0.091619
 67,-0.06161186,0.00909812,0.01517076,0.01072278,0.02365507,0.01006240,
 0.03754938,0.00673165,-0.12894204,-0.10262607,0.02006635,-0.03515984,-
 0.02355505,-0.03007565,0.15097388,0.01064855,-0.09310106,-0.19611126,0
 .00320327,-0.00910044,0.01495716,-0.00908173,0.11862420,0.21566882,-0.
 08903957,0.05028000,-0.08426688,-0.00738540,0.03894087,-0.03118583,0.0
 1017410,0.00134577,-0.00152430,0.19541586,0.05457802,-0.13727907,0.041
 99472,0.04147954,-0.03758529,0.05920366,-0.00497289,0.01185120,-0.0187
 6403,-0.30659139,0.71584976,-0.07605331,0.02468842,-0.30331486,-0.0263
 3525,0.04898192,0.00639572,-0.01360019,0.00667947,-0.03080708,0.130618
 43,0.10001111,0.73455504,-0.01144576,0.00677325,0.00670291,0.00566330,
 0.00261703,-0.00458508,-0.00087844,-0.00108497,0.00014503,-0.08676855,
 0.17941450,-0.01688617,0.09632261,-0.00127138,-0.00869676,-0.00282685,
 0.00285911,0.00324641,0.00234451,-0.00074197,0.00022095,0.00016612,0.1
 7935816,-0.37724634,-0.00359638,-0.18304153,0.38986605,-0.00866818,0.0
 2956321,0.01169327,-0.00412346,0.00137150,-0.00593923,0.00080049,-0.00
 121477,-0.00052782,-0.01699483,-0.00336792,-0.07229576,0.01477606,-0.0
 0309031,0.05937816,0.00466908,-0.01228574,-0.01060962,-0.00433217,-0.0
 0084536,0.00358441,0.00404404,0.00301685,-0.00339082,-0.02239645,0.036
 09222,0.00225649,-0.00289316,0.00283762,0.01420992,0.02090866,-0.00464
 360,0.01581201,0.00870197,-0.00156646,-0.00314531,-0.00157168,0.003037
 32,0.00105587,0.00217521,0.03666660,-0.17559026,-0.17676453,-0.0046782
 7,-0.00739031,-0.02326172,-0.02881559,0.16925800,0.00399462,-0.0220695
 9,-0.02461690,0.00220684,0.00133125,0.00580676,-0.00335173,0.00209222,
 -0.00317981,0.00335341,-0.17907754,-0.33453305,-0.00015275,0.00700292,
 0.00769137,-0.00605038,0.19072074,0.34883163\\0.00001692,-0.00012968,-
 0.00021440,-0.00003910,0.00010896,0.00006415,0.00001062,-0.00001095,0.
 00003343,-0.00002032,0.00007586,0.00007107,0.00001395,-0.00003405,-0.0
 0000715,0.00001794,-0.00001013,0.00005291\\\@
 The archive entry for this job was punched.


 REVOLUTIONS HAVE NEVER LIGHTENED THE BURDEN OF TYRANNY:
 THEY HAVE MERELY SHIFTED IT TO OTHER SHOULDERS.
                                   -- G. B. SHAW (1903)
 Job cpu time:       0 days  0 hours  7 minutes 25.9 seconds.
 Elapsed time:       0 days  0 hours  0 minutes 20.7 seconds.
 File lengths (MBytes):  RWF=     58 Int=      0 D2E=      0 Chk=      4 Scr=      1
 Normal termination of Gaussian 16 at Tue Jan 26 00:26:26 2021.
