 --invoking executable--
/home/orgChemistry/bin/cfour_v21/bin/xjoda


   *************************************************************************
         <<<     CCCCCC     CCCCCC   |||     CCCCCC     CCCCCC   >>>
       <<<      CCC        CCC       |||    CCC        CCC         >>>
      <<<      CCC        CCC        |||   CCC        CCC            >>>
    <<<        CCC        CCC        |||   CCC        CCC              >>>
      <<<      CCC        CCC        |||   CCC        CCC            >>>
       <<<      CCC        CCC       |||    CCC        CCC         >>>
         <<<     CCCCCC     CCCCCC   |||     CCCCCC     CCCCCC   >>>
   *************************************************************************

     ****************************************************************
     * CFOUR Coupled-Cluster techniques for Computational Chemistry *
     ****************************************************************
 

   Department of Chemistry                Institut fuer Physikalische Chemie
   University of Florida                  Universitaet Mainz
   Gainesville, FL 32611, USA             D-55099 Mainz, Germany

   Department of Chemistry                Fakultaet fuer Chemie und Biowiss.
   Johns Hopkins University               Karlsruher Institut fuer Technologie
   Baltimore, MD 21218, USA               D-76131 Karlsruhe, Germany

   Department of Chemistry                Department of Physical Chemistry
   Southern Methodist University          Eotvos Lorand University
   Dallas, TX 75275, USA                  H-1053 Budapest, Hungary

 
                       Version 2.1
 
                     node2-200                                         
                     Wed Jan 27 19:54:21 CET 2021                      
                     integer*8 version is running
 
********************************************************************************
*                          Input from ZMAT file                                *
********************************************************************************
title                                                                           
C                                                                               
N 1 R12*                                                                        
H 1 R13* 2 A213*                                                                
H 1 R14* 2 A214* 3 D3214*                                                       
H 1 R15* 2 A215* 3 D3215*                                                       
O 2 R26* 1 A126* 3 D3126*                                                       
                                                                                
R12           =        1.47832801                                               
R13           =        1.09140248                                               
A213          =        106.74464400                                             
R14           =        1.09140154                                               
A214          =        106.74489806                                             
D3214         =        -114.41278570                                            
R15           =        1.08936010                                               
A215          =        111.81284669                                             
D3215         =        122.79337404                                             
R26           =        1.19909778                                               
A126          =        114.10757734                                             
D3126         =        -122.79284038                                            
                                                                                
*CFOUR(CALC=CCSD(T),BASIS=cc-pVTZ,FROZEN_CORE=1                                 
       CONVERGENCE=8                                                            
       MEMORY_SIZE=5000,MEM_UNIT=MB,ABCDTYPE=AOBASIS,CC_PROG=ECC                
       MULTIPLICITY=1,CHARGE=0                                                  
       SCF_CONV=8,CC_CONV=10)                                                   
                                                                                
********************************************************************************
    -------------------------------------------------------------------
                    CFOUR Control Parameters 
    -------------------------------------------------------------------
        External           Internal           Value            Units
          Name               Name
    -------------------------------------------------------------------
       ABCDTYPE             IABCDT         AOBASIS     [  2]    ***   
       ANHARMONIC           IANHAR         OFF         [  0]    ***   
       ANH_ALGORIT          IANALG         STANDARD    [  0]    ***   
       ANH_DERIVAT          IANDER         SECOND      [  1]    ***   
       ANH_MODE             ANHMOD         VIBRATION   [  0]    ***   
       ANH_STEPSIZ          ICUBST             50000          x 10-6  
       ANH_SYMMETR          IANHSM         ABELIAN     [  0]    ***   
       AO_LADDERS           IAOLAD         SINGLEPASS  [  1]    ***   
       AV_SCF               IAVSCF         OFF         [  0]    ***   
       BASIS                IBASIS         PVTZ        [ 14]    ***   
       BOTHVECTORS          BOTHVC         OFF         [  0]    ***   
       BOX_POTENT           IPIAB          OFF         [  0]    ***   
       BREIT                IBREIT         OFF         [  0]    ***   
       BRUCK_CONV           IBRTOL          10D-  4             ***   
       BRUECKNER            IBRKNR         OFF         [  0]    ***   
       BUFFERSIZE           IBUFFS              4096            ***   
       CACHE_RECS           ICHREC             10               ***   
       CALCLEVEL            ICLLVL         CCSD(T)     [ 22]    ***   
       CCORBOPT             ICCORB         OFF         [  0]  x 0.01  
       CC_CONV              ICCCNV          10D- 10             ***   
       CC_EXPORDER          ICCEOR              5               ***   
       CC_EXTRAPOL          ICCEXT         DIIS        [  1]    ***   
       CC_GUESS             ICCGES         MP2         [  0]    ***   
       CC_MAXCYC            ICCCYC            100              cycles 
       CC_PROGRAM           ICCPRO         ECC         [  1]    ***   
       CHARGE               ICHRGE              0               ***   
       CHOLESKY             ICHOLE         OFF         [  0]    ***   
       CIS_CONV             ICISTL              5               ***   
       COMM_SIZE            IPSIZE            ***               ***   
       CONSTANT             ICONST         OLD         [  1]    ***   
       CONTINUUM            ICONTU         NONE        [  0]    ***   
       CONTRACTION          ICNTYP         GENERAL     [  1]    ***   
       COORDINATES          ICOORD         INTERNAL    [  0]    ***   
       CPHF_CONVER          ICPHFT          10D- 16             ***   
       CPHF_MAXCYC          ICPHFC             64              cycles 
       CUBIC                ICUBIC         OFF         [  0]    ***   
       CURVILINEAR          ICURVY         OFF         [  0]    ***   
       DBOC                 IDBOC          OFF         [  0]    ***   
       DCT                  IDCT           OFF         [  0]    ***   
       DERIV_LEV            IDRLVL         FIRST       [  1]    ***   
       DEVMEM_SIZE          IDVMEM         *********           MByte  
       DIAG_MRCC            IEOMST          10D-  0             ***   
       DIFF_TYPE            IDIFTY         RELAXED     [  0]    ***   
       DIRECT               IDIRCT         OFF         [  0]    ***   
       DROPMO               IDRPMO      NONE         
       ECP                  IECP           OFF         [  0]    ***   
       EIGENVECTOR          IVEC                1               ***   
       EL_ANHARM            IELANH         OFF         [  0]    ***   
       EOMFOLLOW            IEOMSR         ENERGY      [  0]    ***   
       EOMIP                IEOMIP         OFF         [  0]    ***   
       EOMLEVEL             HBARFM         SAME        [  0]    ***   
       EOM_MRCC             IMRCCE         NEW         [  1]    ***   
       EOM_NONIT            EOMNON         OFF         [  0]    ***   
       EOM_NSING            IEOMSI          10D-  0             ***   
       EOM_NSTATES          IMRCCD         DAVIDSON    [  0]    ***   
       EOM_NTRIP            IEOMTR          10D-  0             ***   
       EOM_ORDER            IEXORD         ENERGY      [  0]    ***   
       EOM_PROPSTA          IEOMST              0               ***   
       ESTATE_CONV          IEXTOL          10D-  5             ***   
       ESTATE_DIAG          IEXDIG         ITERATIVE   [  0]    ***   
       ESTATE_LOCK          IESLOC         ON          [  1]    ***   
       ESTATE_MAXC          IEXMXC             40               ***   
       ESTATE_PROP          IEXPRP         OFF         [  0]    ***   
       EVAL_HESS            IRECAL              0            # of cyc.
       EXCITATION           IEXCIT              0               ***   
       EXCITE               IEXCIT         NONE        [  0]    ***   
       EXTERN_POT           IEXPOT         OFF         [  0]    ***   
       FCGRADNEW            IFCGNW         OFF         [  0]    ***   
       FC_FIELD             IFINFC              0             x 10-6  
       FD_CALTYPE           IFDCAL         GRADONLY    [  0]    ***   
       FD_PROJECT           IFDPRJ         OFF         [  1]    ***   
       FD_STEPSIZE          IDISFD              0            10-4 bohr
       FD_USEGROUP          IFDGRP         FULL        [  0]    ***   
       FILE_RECSIZ          IFLREC              4096           words  
       FINITE_PERT          IFIPER              0             x 10-6  
       FIXGEOM              IFIXGM         OFF         [  0]    ***   
       FOCK                 IFOCK          AO          [  1]    ***   
       FREQ_ALGORI          IVIALG         STANDARD    [  0]    ***   
       FROZEN_CORE          IFROCO         ON          [  1]    ***   
       GAMMA_ABCD           IGABCD         DIRECT      [  1]    ***   
       GAMMA_ABCI           IGABCI         STORE       [  0]    ***   
       GENBAS_1             IGNBS1              0               ***   
       GENBAS_2             IGNBS2              0               ***   
       GENBAS_3             IGNBS3              0               ***   
       GENBAS_4             IGNBS4              0               ***   
       GEO_CONV             ICONTL              8              H/bohr 
       GEO_MAXCYC           IOPTCY             50               ***   
       GEO_MAXSTEP          IMXSTP            300            millibohr
       GEO_METHOD           INR            NR          [  0]    ***   
       GIAO                 IGIAO          OFF         [  1]    ***   
       GIMIC                IGIMIC         OFF         [  0]    ***   
       GRID                 IGRID          OFF         [  0]    ***   
       GRID_ALGO            IGALGO         SERIAL      [  0]    ***   
       GUESS                IGUESS         MOREAD      [  0]    ***   
       HBAR                 IHBAR          OFF         [  0]    ***   
       HESS_TYPE            IHESTP         SCF         [  0]    ***   
       HF2_FILE             IHF2Fl         USE         [  1]    ***   
       HFSTABILITY          ISTABL         OFF         [  0]    ***   
       INCORE               INCORE         OFF         [  0]    ***   
       INPUT_MRCC           IMRCC          ON          [  1]    ***   
       INTEGRALS            INTTYP         VMOL        [  1]    ***   
       JODA_PRINT           IJPRNT              0               ***   
       KEYWORD_OUT          IDMPKW         NO          [  0]    ***   
       LINDEP_TOL           ILINDP              8               ***   
       LINEQ_CONV           IZTACN          10D-  7           cycles  
       LINEQ_EXPOR          ILMAXD              5               ***   
       LINEQ_MAXCY          ILMAXC            100               ***   
       LINEQ_TYPE           ILTYPE         DIIS        [  1]    ***   
       LOCK_ORBOCC          ILOCOC         OFF         [  0]    ***   
       MEMORY_SIZE          IMEMSZ         625000000           words  
       MEM_UNIT             IMEMU          MB          [  2]    ***   
       MRCC                 IMRCCC         OFF         [  0]    ***   
       MULTIPLICTY          IMULTP              1               ***   
       NACOUPLING           IVCOUP         OFF         [  0]    ***   
       NEGEVAL              IDIE           ABORT       [  0]    ***   
       NEWNORM              INEWNO         OFF         [  0]    ***   
       NON-HF               INONHF         OFF         [  0]    ***   
       NTOP_TAMP            ITOPT2             15               ***   
       NUC_MODEL            INUCMO         POINT       [  0]    ***   
       OCCUPATION           IOCCU   ESTIMATED BY SCF 
       OPEN-SHELL           IOPEN          SPIN-ORBITAL[  0]    ***   
       OPTVIB               IOPTVB         OFF         [  0]    ***   
       ORBITALS             IORBTP         STANDARD    [  0]    ***   
       PARALLEL             IPARAL         ON          [  1]    ***   
       PARA_INT             IPINTS         ON          [  1]    ***   
       PARA_PRINT           IPPRIN              0               ***   
       PERT_ORB             IPTORB         CANONICAL   [  1]    ***   
       POINTS               IGRDFD              0               ***   
       PRINT                IPRNT               0               ***   
       PROPS                IPROPS         OFF         [  0]    ***   
       PROP_INTEGR          IINTYP         INTERNAL    [  0]    ***   
       PSI                  IPSI           OFF         [  0]    ***   
       QC_ALG               IQCALG         FLM         [  0]    ***   
       QC_LINALG            IQCLIN         TRIDIAG     [  2]    ***   
       QC_MAXCYC            IQCMAX          10D-100           cycles  
       QC_MAXSCFCY          IQCMSC          10D- 15           cycles  
       QC_RTRUST            IQCRTR          10D-  0           x 10-3  
       QC_SKIPSCF           IQCSKI         OFF         [  0]    ***   
       QC_START             IQCSTA          10D-  1             ***   
       QRHFGUESS            IQGUES         OFF         [  0]    ***   
       QUARTIC              IQUART         OFF         [  0]    ***   
       RAMAN_INT            IRAMIN         OFF         [  0]    ***   
       RAMAN_ORB            IRAMRE         UNRELAXED   [  0]    ***   
       RDO                  IRDOFM         ON          [  1]    ***   
       REDUCE_REPR          REDREP         Ir          [  0]    ***   
       REFERENCE            IREFNC         RHF         [  0]    ***   
       RELATIVIST           IRELAT         OFF         [  0]    ***   
       RELAX_DENS           IRDENS         ON          [  1]    ***   
       RESET_FLAGS          IRESET         OFF         [  0]    ***   
       RESTART_CC           ICCRES         OFF         [  0]    ***   
       ROT_EVEC             ROTVEC              0               ***   
       SAVE_INTS            ISVINT         OFF         [  0]    ***   
       SCALE_ON             ISTCRT              0               ***   
       SCF_CONV             ISCFCV          10D-  8             ***   
       SCF_DAMPING          IDAMP               0             x 10-3  
       SCF_EXPORDE          IRPPOR              6               ***   
       SCF_EXPSTAR          IRPPLS              8               ***   
       SCF_EXTRAPO          IRPP           ON          [  1]    ***   
       SCF_MAXCYC           ISCFCY            150              cycles 
       SCF_NOSTOP           ISCFST         OFF         [  0]    ***   
       SCF_PRINT            ISCFPR              0               ***   
       SCF_PROG             ISCFPR         SCF         [  0]    ***   
       SD_FIELD             IFINSD              0             x 10-6  
       SOPERT               IPERSO         OFF         [  0]    ***   
       SPHERICAL            IDFGHI         ON          [  1]    ***   
       SPINORBIT            ISOCAL         OFF         [  0]    ***   
       SPINROTATIO          ISRCON         OFF         [  0]    ***   
       SPIN_FLIP            ISPFLP         OFF         [  0]    ***   
       SPIN_ORBIT           ISPORB         OFF         [  0]    ***   
       SPIN_SCAL            ISCSMP         OFF         [  0]    ***   
       STEEPSCALE           ISTPSC              1000          x 10-3  
       SUBGROUP             ISUBGP         DEFAULT     [  0]    ***   
       SUBGRPAXIS           ISBXYZ         X           [  0]    ***   
       SYMMETRY             ISYM           ON          [  0]    ***   
       SYM_CHECK            ISYMCK         OVERRIDE    [  1]    ***   
       T3_EXTRAPOL          IT3EXT         OFF         [  0]    ***   
       T4_EXTRAPOL          IT4EXP         OFF         [  0]    ***   
       TAMP_SUM             IEVERY              5               ***   
       TESTSUITE            ITESTS         OFF         [  0]    ***   
       THERMOCH             ITHERM         OFF         [  0]    ***   
       TOL_CHOLESK          ITOLCH          10D-  4             ***   
       TRANGRAD             IRESRM         OFF         [  0]    ***   
       TRANS_INV            ITRAIN         USE         [  0]    ***   
       TREAT_PERT           ITREAT         SIMULTANEOUS[  0]    ***   
       TRIP_ALGORI          ITRALG         NORMAL      [  0]    ***   
       UIJ_THRESHO          IUIJTH              1               ***   
       UNITS                IUNITS         ANGSTROM    [  0]    ***   
       UNOS                 IUNOS          OFF         [  0]    ***   
       UPDATE_HESS          IHUPDT         ON          [  1]    ***   
       VIBPHASE             ISETPH         STANDARD    [  0]    ***   
       VIBRATION            IVIB           NO          [  0]    ***   
       VIB_ALGORIT          IGEALG         STANDARD    [  0]    ***   
       VNATORB              IVNORB         OFF         [  0]    ***   
       VTRAN                IVTRAN         PARTIAL     [  2]    ***   
       XFIELD               IXEFLD              0             x 10-6  
       XFORM_TOL            IXFTOL          10D- 11             ***   
       YFIELD               IYEFLD              0             x 10-6  
       ZFIELD               IZEFLD              0             x 10-6  
       ZSCALE_EXP           IZEXPS         OFF         [  0]    ***   
    -------------------------------------------------------------------
   6 entries found in Z-matrix 
   Job Title : title                                                                           
   There are 12 unique internal coordinates.
   Of these, 12 will be optimized.
   User supplied Z-matrix: 
--------------------------------------------------------------------------------
       SYMBOL    BOND      LENGTH    ANGLE     ANGLE     DIHED     ANGLE
                  TO      (ANGST)    WRT      (DEG)      WRT      (DEG)
--------------------------------------------------------------------------------
        C    
        N          1         R12  
        H          1         R13        2        A213 
        H          1         R14        2        A214       3        D3214
        H          1         R15        2        A215       3        D3215
        O          2         R26        1        A126       3        D3126
                  *Initial values for internal coordinates* 
                      Name             Value
                        R12             1.4783280100
                        R13             1.0914024800
                        A213          106.7446440000
                        R14             1.0914015400
                        A214          106.7448980600
                        D3214        -114.4127857000
                        R15             1.0893601000
                        A215          111.8128466900
                        D3215         122.7933740400
                        R26             1.1990977800
                        A126          114.1075773400
                        D3126        -122.7928403800
--------------------------------------------------------------------------------
   Rotational constants (in cm-1): 
          0.3443174886             0.3833124671             2.0831541322
   Rotational constants (in MHz): 
      10322.3800712264         11491.4202781220         62451.3985190227
********************************************************************************
   The full molecular point group is C1  .
   The largest Abelian subgroup of the full molecular point group is C1  .
   The computational point group is C1  .
********************************************************************************
--------------------------------------------------------------------------------
   Analysis of internal coordinates specified by Z-matrix 
--------------------------------------------------------------------------------
   *The nuclear repulsion energy is   70.596507344667913 a.u.
  *WARNING* Parameters A213  and A214  appear to be equivalent.
  *WARNING* Parameters R14   and R13   appear to be equivalent.
   *There are  12 degrees of freedom within the tot. symm. molecular subspace.
   *Z-matrix requests optimization of  12 coordinates.
   *The following  10 parameters can have non-zero 
    derivatives within the totally symmetric subspace:
             D3126[12]  D3215[ 9]  D3214[ 6]  A213 [ 3]  A215 [ 8]  R15  [ 7]
             R14  [ 4]  A126 [11]  R12  [ 1]  R26  [10]
   *The following  12 parameters are to be optimized:
             R12  [ 1]  R13  [ 2]  A213 [ 3]  R14  [ 4]  A214 [ 5]  D3214[ 6]
             R15  [ 7]  A215 [ 8]  D3215[ 9]  R26  [10]  A126 [11]  D3126[12]

--------------------------------------------------------------------------------


 ----------------------------------------------------------------
         Coordinates used in calculation (QCOMP) 
 ----------------------------------------------------------------
 Z-matrix   Atomic            Coordinates (in bohr)
  Symbol    Number           X              Y              Z
 ----------------------------------------------------------------
     C         6         2.24165081    -0.33905622    -0.00000075
     N         7        -0.23910507     0.94556450    -0.00000016
     H         1         3.26118168     0.33757152     1.66025250
     H         1         3.26120779     0.33760555    -1.66022189
     H         1         2.04206083    -2.38795046    -0.00001879
     O         8        -2.01208146    -0.46552041    -0.00000004
 ----------------------------------------------------------------
 
   Interatomic distance matrix (Angstroms) 
 
                 C             N             H             H             H    
                [ 1]        [ 2]        [ 3]        [ 4]        [ 5]
  C    [ 1]     0.00000
  N    [ 2]     1.47833     0.00000
  H    [ 3]     1.09140     2.07516     0.00000
  H    [ 4]     1.09140     2.07517     1.75712     0.00000
  H    [ 5]     1.08936     2.13751     1.80784     1.80784     0.00000
  O    [ 6]     2.25197     1.19910     2.95624     2.95625     2.37434
 
                 O    
                [ 6]
  O    [ 6]     0.00000
 rotcon2
   Rotational constants (in cm-1): 
          2.0831541322             0.3833124671             0.3443174886
   Rotational constants (in MHz): 
      62451.3985190225         11491.4202781220         10322.3800712264
  There are   3 frozen-core orbitals.
  There are  132 basis functions.
 @CHECKOUT-I, Total execution time (CPU/WALL):        0.11/       0.25 seconds.
--executable xjoda finished with status     0 in        0.26 seconds (walltime).
 --invoking executable--
/home/orgChemistry/bin/cfour_v21/bin/xvmol
 SERIAL VERSION OF MOLECULE STARTED
********************************************************************************
                    INPUT FROM MOL FILE
********************************************************************************
INTGRL        1    0    1    0    0    0    0    0    0                         
         *** CFOUR Program System (Release V0.1) ***                            
title                                                                           
    6    0            0.10E-08              0    0                              
   9999.00      3.00                                                            
          6.00000000    1    4    1    1    1    1                              
C #1   2.241650812175986  -0.339056215638205  -0.000000750259965                
   10    4                                                                      
   8236.00000000000       5.310000000000000E-004 -1.130000000000000E-004        
  0.000000000000000E+000  0.000000000000000E+000                                
   1235.00000000000       4.108000000000000E-003 -8.780000000000000E-004        
  0.000000000000000E+000  0.000000000000000E+000                                
   280.800000000000       2.108700000000000E-002 -4.540000000000000E-003        
  0.000000000000000E+000  0.000000000000000E+000                                
   79.2700000000000       8.185300000000000E-002 -1.813300000000000E-002        
  0.000000000000000E+000  0.000000000000000E+000                                
   25.5900000000000       0.234817000000000      -5.576000000000000E-002        
  0.000000000000000E+000  0.000000000000000E+000                                
   8.99700000000000       0.434401000000000      -0.126895000000000             
  0.000000000000000E+000  0.000000000000000E+000                                
   3.31900000000000       0.346129000000000      -0.170352000000000             
  0.000000000000000E+000  0.000000000000000E+000                                
  0.905900000000000       3.937800000000000E-002  0.140382000000000             
   1.00000000000000       0.000000000000000E+000                                
  0.364300000000000      -8.983000000000000E-003  0.598684000000000             
  0.000000000000000E+000  0.000000000000000E+000                                
  0.128500000000000       2.385000000000000E-003  0.395389000000000             
  0.000000000000000E+000   1.00000000000000                                     
    5    3                                                                      
   18.7100000000000       1.403100000000000E-002  0.000000000000000E+000        
  0.000000000000000E+000                                                        
   4.13300000000000       8.686600000000000E-002  0.000000000000000E+000        
  0.000000000000000E+000                                                        
   1.20000000000000       0.290216000000000       0.000000000000000E+000        
  0.000000000000000E+000                                                        
  0.382700000000000       0.501008000000000        1.00000000000000             
  0.000000000000000E+000                                                        
  0.120900000000000       0.343406000000000       0.000000000000000E+000        
   1.00000000000000                                                             
    2    2                                                                      
   1.09700000000000        1.00000000000000       0.000000000000000E+000        
  0.318000000000000       0.000000000000000E+000   1.00000000000000             
    1    1                                                                      
  0.761000000000000        1.00000000000000                                     
          7.00000000    1    4    1    1    1    1                              
N #2  -0.239105070409388   0.945564497946157  -0.000000157376240                
   10    4                                                                      
   11420.0000000000       5.230000000000000E-004 -1.150000000000000E-004        
  0.000000000000000E+000  0.000000000000000E+000                                
   1712.00000000000       4.045000000000000E-003 -8.950000000000000E-004        
  0.000000000000000E+000  0.000000000000000E+000                                
   389.300000000000       2.077500000000000E-002 -4.624000000000000E-003        
  0.000000000000000E+000  0.000000000000000E+000                                
   110.000000000000       8.072699999999999E-002 -1.852800000000000E-002        
  0.000000000000000E+000  0.000000000000000E+000                                
   35.5700000000000       0.233074000000000      -5.733900000000000E-002        
  0.000000000000000E+000  0.000000000000000E+000                                
   12.5400000000000       0.433501000000000      -0.132076000000000             
  0.000000000000000E+000  0.000000000000000E+000                                
   4.64400000000000       0.347472000000000      -0.172510000000000             
  0.000000000000000E+000  0.000000000000000E+000                                
   1.29300000000000       4.126200000000000E-002  0.151814000000000             
   1.00000000000000       0.000000000000000E+000                                
  0.511800000000000      -8.508000000000000E-003  0.599944000000000             
  0.000000000000000E+000  0.000000000000000E+000                                
  0.178700000000000       2.384000000000000E-003  0.387462000000000             
  0.000000000000000E+000   1.00000000000000                                     
    5    3                                                                      
   26.6300000000000       1.467000000000000E-002  0.000000000000000E+000        
  0.000000000000000E+000                                                        
   5.94800000000000       9.176400000000000E-002  0.000000000000000E+000        
  0.000000000000000E+000                                                        
   1.74200000000000       0.298683000000000       0.000000000000000E+000        
  0.000000000000000E+000                                                        
  0.555000000000000       0.498487000000000        1.00000000000000             
  0.000000000000000E+000                                                        
  0.172500000000000       0.337023000000000       0.000000000000000E+000        
   1.00000000000000                                                             
    2    2                                                                      
   1.65400000000000        1.00000000000000       0.000000000000000E+000        
  0.469000000000000       0.000000000000000E+000   1.00000000000000             
    1    1                                                                      
   1.09300000000000        1.00000000000000                                     
          1.00000000    1    3    1    1    1                                   
H #3   3.261181680092095   0.337571519796862   1.660252495603786                
    5    3                                                                      
   33.8700000000000       6.068000000000000E-003  0.000000000000000E+000        
  0.000000000000000E+000                                                        
   5.09500000000000       4.530800000000000E-002  0.000000000000000E+000        
  0.000000000000000E+000                                                        
   1.15900000000000       0.202822000000000       0.000000000000000E+000        
  0.000000000000000E+000                                                        
  0.325800000000000       0.503903000000000        1.00000000000000             
  0.000000000000000E+000                                                        
  0.102700000000000       0.383421000000000       0.000000000000000E+000        
   1.00000000000000                                                             
    2    2                                                                      
   1.40700000000000        1.00000000000000       0.000000000000000E+000        
  0.388000000000000       0.000000000000000E+000   1.00000000000000             
    1    1                                                                      
   1.05700000000000        1.00000000000000                                     
          1.00000000    1    3    1    1    1                                   
H #4   3.261207791717621   0.337605545147480  -1.660221887070235                
    5    3                                                                      
   33.8700000000000       6.068000000000000E-003  0.000000000000000E+000        
  0.000000000000000E+000                                                        
   5.09500000000000       4.530800000000000E-002  0.000000000000000E+000        
  0.000000000000000E+000                                                        
   1.15900000000000       0.202822000000000       0.000000000000000E+000        
  0.000000000000000E+000                                                        
  0.325800000000000       0.503903000000000        1.00000000000000             
  0.000000000000000E+000                                                        
  0.102700000000000       0.383421000000000       0.000000000000000E+000        
   1.00000000000000                                                             
    2    2                                                                      
   1.40700000000000        1.00000000000000       0.000000000000000E+000        
  0.388000000000000       0.000000000000000E+000   1.00000000000000             
    1    1                                                                      
   1.05700000000000        1.00000000000000                                     
          1.00000000    1    3    1    1    1                                   
H #5   2.042060832357606  -2.387950460565458  -0.000018790505885                
    5    3                                                                      
   33.8700000000000       6.068000000000000E-003  0.000000000000000E+000        
  0.000000000000000E+000                                                        
   5.09500000000000       4.530800000000000E-002  0.000000000000000E+000        
  0.000000000000000E+000                                                        
   1.15900000000000       0.202822000000000       0.000000000000000E+000        
  0.000000000000000E+000                                                        
  0.325800000000000       0.503903000000000        1.00000000000000             
  0.000000000000000E+000                                                        
  0.102700000000000       0.383421000000000       0.000000000000000E+000        
   1.00000000000000                                                             
    2    2                                                                      
   1.40700000000000        1.00000000000000       0.000000000000000E+000        
  0.388000000000000       0.000000000000000E+000   1.00000000000000             
    1    1                                                                      
   1.05700000000000        1.00000000000000                                     
          8.00000000    1    4    1    1    1    1                              
O #6  -2.012081459822643  -0.465520405428799  -0.000000043991072                
   10    4                                                                      
   15330.0000000000       5.080000000000000E-004 -1.150000000000000E-004        
  0.000000000000000E+000  0.000000000000000E+000                                
   2299.00000000000       3.929000000000000E-003 -8.950000000000000E-004        
  0.000000000000000E+000  0.000000000000000E+000                                
   522.400000000000       2.024300000000000E-002 -4.636000000000000E-003        
  0.000000000000000E+000  0.000000000000000E+000                                
   147.300000000000       7.918100000000000E-002 -1.872400000000000E-002        
  0.000000000000000E+000  0.000000000000000E+000                                
   47.5500000000000       0.230687000000000      -5.846300000000000E-002        
  0.000000000000000E+000  0.000000000000000E+000                                
   16.7600000000000       0.433118000000000      -0.136463000000000             
  0.000000000000000E+000  0.000000000000000E+000                                
   6.20700000000000       0.350260000000000      -0.175740000000000             
  0.000000000000000E+000  0.000000000000000E+000                                
   1.75200000000000       4.272800000000000E-002  0.160934000000000             
   1.00000000000000       0.000000000000000E+000                                
  0.688200000000000      -8.154000000000000E-003  0.603418000000000             
  0.000000000000000E+000  0.000000000000000E+000                                
  0.238400000000000       2.381000000000000E-003  0.378765000000000             
  0.000000000000000E+000   1.00000000000000                                     
    5    3                                                                      
   34.4600000000000       1.592800000000000E-002  0.000000000000000E+000        
  0.000000000000000E+000                                                        
   7.74900000000000       9.974000000000000E-002  0.000000000000000E+000        
  0.000000000000000E+000                                                        
   2.28000000000000       0.310492000000000       0.000000000000000E+000        
  0.000000000000000E+000                                                        
  0.715600000000000       0.491026000000000        1.00000000000000             
  0.000000000000000E+000                                                        
  0.214000000000000       0.336337000000000       0.000000000000000E+000        
   1.00000000000000                                                             
    2    2                                                                      
   2.31400000000000        1.00000000000000       0.000000000000000E+000        
  0.645000000000000       0.000000000000000E+000   1.00000000000000             
    1    1                                                                      
   1.42800000000000        1.00000000000000                                     
FINISH                                                                          
 
********************************************************************************
 ONE- AND TWO-ELECTRON INTEGRALS OVER SYMMETRY-ADAPTED AOS ARE CALCULATED.

  SPHERICAL HARMONICS ARE USED.
  
  INTEGRALS LESS THAN  0.10E-13 ARE NEGLECTED.

  NUCLEAR REPULSION ENERGY :   70.5965073447 A.U.
  @MOLECU-I, ONE ELECTRON INTEGRALS (CPU/WALL):        0.04/       0.05 SECONDS.
  @TWOEL-I,   38097903 INTEGRALS OF SYMMETRY TYPE  I I I I
  @TWOEL-I, TOTAL NUMBER OF 2-E INTEGRALS   38097903.
  @MOLECU-I, TWO ELECTRON INTEGRALS (CPU/WALL):       11.75/      12.34 SECONDS.
 @CHECKOUT-I, Total execution time (CPU/WALL):       11.80/      12.43 seconds.

Running with 24 threads/proc

--executable xvmol finished with status     0 in       12.47 seconds (walltime).
 --invoking executable--
/home/orgChemistry/bin/cfour_v21/bin/xvmol2ja
 @GETMEM-I,  Allocated    4768 MB of main memory.
 @CHECKOUT-I, Total execution time (CPU/WALL):        0.01/       0.02 seconds.
--executable xvmol2ja finished with status     0 in        0.03 seconds (walltime).
 --invoking executable--
/home/orgChemistry/bin/cfour_v21/bin/xvscf
  There are  132 functions in the AO basis.

  There are 1 irreducible representations.

       Irrep        # of functions
         1                132


  Parameters for SCF calculation: 
        SCF reference function:  RHF  
  Maximum number of iterations:  150
     Full symmetry point group: C1  
     Computational point group: C1  
        Initial density matrix: MOREAD                 
     SCF convergence tolerance: 10**(- 8)
  DIIS convergence acceleration:  ON
          Latest start for DIIS:   8
                     DIIS order:   6

  Memory information:     925589 words required.
  Fock matrices are constructed from AO integral file.
 @GETMEM-I,  Allocated       7 MB of main memory.
  Initialization and symmetry analysis required      0.002 seconds.

  @INITGES-I, Occupancies from core Hamiltonian:

          Alpha population by irrep:  12
           Beta population by irrep:  12


 total no. of electrons in initial guess :  0.000000000000000E+000
  --------------------------------------------------------------------
  Iteration         Total Energy            Largest Density Difference
  --------------------------------------------------------------------
       0            70.596507344667913              0.0000000000D+00
       1          -129.386110320065939              0.1374610003D+02
       2          -126.805754882553714              0.1374323210D+02
       3          -135.674814156341853              0.8032704305D+01
       4          -120.735386765552789              0.8032403616D+01
       5          -135.563109560466529              0.7968680610D+01
       6          -120.441597063487336              0.8253656338D+01
       7          -135.534268787109369              0.8253860325D+01
       8          -120.423853570949888              0.8273244565D+01
       9          -151.329733374258353              0.8264391393D+01
      10          -168.634416577578435              0.4614980392D+01
      11          -168.817013455275713              0.5723310165D+00
      12          -168.886427987655054              0.2512994580D+00
      13          -168.891830952547195              0.8549436939D-01
      14          -168.893594223413174              0.2853748470D-01
      15          -168.893662551636169              0.7839139141D-02
      16          -168.893671806857554              0.3881794398D-02
      17          -168.893672411318136              0.1034115596D-02
      18          -168.893672438363666              0.1356074845D-03
      19          -168.893672440889844              0.5254994590D-04
      20          -168.893672441370342              0.3027427983D-04
      21          -168.893672441478202              0.1333165428D-04
      22          -168.893672441494289              0.5392031261D-05
      23          -168.893672441497017              0.2093903949D-05
      24          -168.893672441494743              0.2071880182D-06
      25          -168.893672441495738              0.1261959062D-06
      26          -168.893672441493464              0.4011407986D-07
      27          -168.893672441495710              0.1711748077D-07

  SCF has converged.

 Density matrix saved to file den.dat
 total electron number:   24.0000000000002     
     E(SCF)=      -168.893672441496392              0.5296149075D-08

  Eigenvector printing suppressed.

 @PUTMOS-I, Writing converged MOs to NEWMOS. 
 @PUTMOS-I, Symmetry   1 Full Blocks 33 Partial Blocksize   0
 @PUTFOCK-I, Writing converged Fock matrix to NEWFOCK. 
 @PUTFOCK-I, Symmetry   1 Full Blocks 33 Partial Blocksize   0


 
  ORBITAL EIGENVALUES (ALPHA)  (1H = 27.2113834 eV)

       MO #        E(hartree)               E(eV)           FULLSYM    COMPSYM
       ----   --------------------   --------------------   -------   ---------
    1     1         -20.6267812524        -561.2832529661       A         A (1)
    2     2         -15.6991388172        -427.1952854052       A         A (1)
    3     3         -11.2698330601        -306.6677482537       A         A (1)
    4     4          -1.5203437574         -41.3706568820       A         A (1)
    5     5          -1.0765280990         -29.2938188415       A         A (1)
    6     6          -0.8603553239         -23.4114585797       A         A (1)
    7     7          -0.6948681665         -18.9083240913       A         A (1)
    8     8          -0.6786309885         -18.4664880147       A         A (1)
    9     9          -0.6416318024         -17.4596889760       A         A (1)
   10    10          -0.5634986823         -15.3335786896       A         A (1)
   11    11          -0.5387056156         -14.6589250460       A         A (1)
   12    12          -0.4010494528         -10.9131104219       A         A (1)
  +++++++++++++++++++++++++++++++++++++++++++++++++++++++++++++++++++++++++++++
   13    13           0.1067318042           2.9043200456       A         A (1)
   14    14           0.1421891636           3.8691638457       A         A (1)
   15    15           0.2050454914           5.5795714810       A         A (1)
   16    16           0.2060513983           5.6069435998       A         A (1)
   17    17           0.2449104251           6.6643514748       A         A (1)
   18    18           0.3528969804           9.6028150334       A         A (1)
   19    19           0.3617433501           9.8435369918       A         A (1)
   20    20           0.4554782683          12.3941937887       A         A (1)
   21    21           0.5409517184          14.7200446093       A         A (1)
   22    22           0.5841592864          15.8957823080       A         A (1)
   23    23           0.6046931954          16.4545383802       A         A (1)
   24    24           0.6048485095          16.4587646904       A         A (1)
   25    25           0.6172715346          16.7968123891       A         A (1)
   26    26           0.6407124235          17.4346714054       A         A (1)
   27    27           0.6926709877          18.8485358157       A         A (1)
   28    28           0.7189460985          19.5635179311       A         A (1)
   29    29           0.7670150110          20.8715395382       A         A (1)
   30    30           0.7962656659          21.6674903242       A         A (1)
   31    31           0.8191453625          22.2900785182       A         A (1)
   32    32           0.8548862146          23.2626365497       A         A (1)
   33    33           0.9476586965          25.7871041217       A         A (1)
   34    34           1.0266151950          27.9356196766       A         A (1)
   35    35           1.0356315116          28.1809661237       A         A (1)
   36    36           1.0943094047          29.7776727699       A         A (1)
   37    37           1.1541867971          31.4070194499       A         A (1)
   38    38           1.1687207139          31.8025074330       A         A (1)
   39    39           1.2395845402          33.7308101811       A         A (1)
   40    40           1.2598830756          34.2831614101       A         A (1)
   41    41           1.3180282783          35.8653728138       A         A (1)
   42    42           1.3829135149          37.6309898638       A         A (1)
   43    43           1.3838022655          37.6551739964       A         A (1)
   44    44           1.4914051259          40.5831966850       A         A (1)
   45    45           1.5042873864          40.9337408149       A         A (1)
   46    46           1.5574371946          42.3800206240       A         A (1)
   47    47           1.5888174176          43.2339199022       A         A (1)
   48    48           1.6474553250          44.8295384823       A         A (1)
   49    49           1.6861035448          45.8812100100       A         A (1)
   50    50           1.7300452001          47.0769232379       A         A (1)
   51    51           1.7668519082          48.0784846860       A         A (1)
   52    52           1.9026831416          51.7746404558       A         A (1)
   53    53           1.9822700749          53.9403110116       A         A (1)
   54    54           2.0932423133          56.9600191374       A         A (1)
   55    55           2.2720150859          61.8246735931       A         A (1)
   56    56           2.4116311822          65.6238207195       A         A (1)
   57    57           2.4457592331          66.5524921949       A         A (1)
   58    58           2.5354688881          68.9936160117       A         A (1)
   59    59           2.5727438049          70.0079180649       A         A (1)
   60    60           2.5878066290          70.4177983480       A         A (1)
   61    61           2.8335001736          77.1034595890       A         A (1)
   62    62           2.9704388941          80.8297516150       A         A (1)
   63    63           2.9933475376          81.4531274960       A         A (1)
   64    64           3.0877395188          84.0216638861       A         A (1)
   65    65           3.0948248891          84.2144666140       A         A (1)
   66    66           3.1218905655          84.9509611111       A         A (1)
   67    67           3.2055287433          87.2268716344       A         A (1)
   68    68           3.2150864474          87.4869499832       A         A (1)
   69    69           3.2612731705          88.7437546149       A         A (1)
   70    70           3.2850067478          89.3895780865       A         A (1)
   71    71           3.3827608712          92.0496030163       A         A (1)
   72    72           3.4127518446          92.8656988919       A         A (1)
   73    73           3.4995070159          95.2264271197       A         A (1)
   74    74           3.5710080356          97.1720687815       A         A (1)
   75    75           3.5838601791          97.5217933858       A         A (1)
   76    76           3.6763269538         100.0379422441       A         A (1)
   77    77           3.6958276366         100.5685827993       A         A (1)
   78    78           3.7385790364         101.7319075298       A         A (1)
   79    79           3.8198917869         103.9445399605       A         A (1)
   80    80           3.8676953078         105.2453398944       A         A (1)
   81    81           3.9740192551         108.1385615889       A         A (1)
   82    82           3.9779914433         108.2466503247       A         A (1)
   83    83           4.0359791432         109.8245758606       A         A (1)
   84    84           4.0474074261         110.1355552470       A         A (1)
   85    85           4.0782338949         110.9743861077       A         A (1)
   86    86           4.1376311756         112.5906682874       A         A (1)
   87    87           4.1834605001         113.8377476077       A         A (1)
   88    88           4.2241626956         114.9453106542       A         A (1)
   89    89           4.3068365645         117.1949809974       A         A (1)
   90    90           4.3308002903         117.8470671295       A         A (1)
   91    91           4.4084152906         119.9590786598       A         A (1)
   92    92           4.4244070449         120.3942364159       A         A (1)
   93    93           4.4283733220         120.5021643020       A         A (1)
   94    94           4.5266385461         123.1760969914       A         A (1)
   95    95           4.5788147842         124.5958846118       A         A (1)
   96    96           4.6585656263         126.7660153512       A         A (1)
   97    97           4.7075857069         128.0999195579       A         A (1)
   98    98           4.7931850107         130.4291950335       A         A (1)
   99    99           4.9032906595         133.4253220577       A         A (1)
  100   100           4.9327453761         134.2268256444       A         A (1)
  101   101           5.0359881750         137.0362050282       A         A (1)
  102   102           5.0982792172         138.7312304603       A         A (1)
  103   103           5.2101653397         141.7758066365       A         A (1)
  104   104           5.2155322429         141.9218474956       A         A (1)
  105   105           5.3035750395         144.3176137891       A         A (1)
  106   106           5.3542151507         145.6956012716       A         A (1)
  107   107           5.3641995285         145.9672900041       A         A (1)
  108   108           5.3717000814         146.1713904259       A         A (1)
  109   109           5.5092772972         149.9150567922       A         A (1)
  110   110           5.5198748631         150.2034312199       A         A (1)
  111   111           5.5540933789         151.1345643731       A         A (1)
  112   112           5.5686968485         151.5319449819       A         A (1)
  113   113           5.5892238889         152.0905141482       A         A (1)
  114   114           5.6219885938         152.9820870962       A         A (1)
  115   115           5.6539797455         153.8526105893       A         A (1)
  116   116           5.7381789215         156.1437866514       A         A (1)
  117   117           5.8687011491         159.6954770286       A         A (1)
  118   118           6.0024995322         163.3363161303       A         A (1)
  119   119           6.1102490838         166.2683304883       A         A (1)
  120   120           6.1688726307         167.8635582996       A         A (1)
  121   121           6.2255299405         169.4052820799       A         A (1)
  122   122           6.7714766322         184.2612468218       A         A (1)
  123   123           6.7864232428         184.6679647756       A         A (1)
  124   124           6.8740352704         187.0520092469       A         A (1)
  125   125           6.9137191088         188.1318613884       A         A (1)
  126   126           7.1226684653         193.8176624417       A         A (1)
  127   127           7.3486887126         199.9679860468       A         A (1)
  128   128           7.4467605276         202.6366558033       A         A (1)
  129   129           7.6254254598         207.4983757749       A         A (1)
  130   130           8.7792994176         238.8968824348       A         A (1)
  131   131          13.4101446211         364.9085867346       A         A (1)
  132   132          13.8173320545         375.9887200991       A         A (1)


  VSCF finished.

 @CHECKOUT-I, Total execution time (CPU/WALL):       14.84/      21.88 seconds.
--executable xvscf finished with status     0 in       21.89 seconds (walltime).
 --invoking executable--
/home/orgChemistry/bin/cfour_v21/bin/xvtran
 @GETMEM-I,  Allocated    4768 MB of main memory.
  Partial RHF integral transformation
  Frozen-core orbitals requested within analytic derivative calculation
  Transformation of IIII integrals :
  1 pass through the AO integral file was required.
    38097903 AO integrals were read.
    12173601 MO integrals were written to HF2.
  Summary of active molecular orbitals: 
------------------------------------------------------------------------
 
  Index      Eigenvalue    Symmetry    Index      Eigenvalue    Symmetry
------------------------------------------------------------------------
     1       -20.6267813        1        67         3.2055287        1
     2       -15.6991388        1        68         3.2150864        1
     3       -11.2698331        1        69         3.2612732        1
     4        -1.5203438        1        70         3.2850067        1
     5        -1.0765281        1        71         3.3827609        1
     6        -0.8603553        1        72         3.4127518        1
     7        -0.6948682        1        73         3.4995070        1
     8        -0.6786310        1        74         3.5710080        1
     9        -0.6416318        1        75         3.5838602        1
    10        -0.5634987        1        76         3.6763270        1
    11        -0.5387056        1        77         3.6958276        1
    12        -0.4010495        1        78         3.7385790        1
    13         0.1067318        1        79         3.8198918        1
    14         0.1421892        1        80         3.8676953        1
    15         0.2050455        1        81         3.9740193        1
    16         0.2060514        1        82         3.9779914        1
    17         0.2449104        1        83         4.0359791        1
    18         0.3528970        1        84         4.0474074        1
    19         0.3617434        1        85         4.0782339        1
    20         0.4554783        1        86         4.1376312        1
    21         0.5409517        1        87         4.1834605        1
    22         0.5841593        1        88         4.2241627        1
    23         0.6046932        1        89         4.3068366        1
    24         0.6048485        1        90         4.3308003        1
    25         0.6172715        1        91         4.4084153        1
    26         0.6407124        1        92         4.4244070        1
    27         0.6926710        1        93         4.4283733        1
    28         0.7189461        1        94         4.5266385        1
    29         0.7670150        1        95         4.5788148        1
    30         0.7962657        1        96         4.6585656        1
    31         0.8191454        1        97         4.7075857        1
    32         0.8548862        1        98         4.7931850        1
    33         0.9476587        1        99         4.9032907        1
    34         1.0266152        1       100         4.9327454        1
    35         1.0356315        1       101         5.0359882        1
    36         1.0943094        1       102         5.0982792        1
    37         1.1541868        1       103         5.2101653        1
    38         1.1687207        1       104         5.2155322        1
    39         1.2395845        1       105         5.3035750        1
    40         1.2598831        1       106         5.3542152        1
    41         1.3180283        1       107         5.3641995        1
    42         1.3829135        1       108         5.3717001        1
    43         1.3838023        1       109         5.5092773        1
    44         1.4914051        1       110         5.5198749        1
    45         1.5042874        1       111         5.5540934        1
    46         1.5574372        1       112         5.5686968        1
    47         1.5888174        1       113         5.5892239        1
    48         1.6474553        1       114         5.6219886        1
    49         1.6861035        1       115         5.6539797        1
    50         1.7300452        1       116         5.7381789        1
    51         1.7668519        1       117         5.8687011        1
    52         1.9026831        1       118         6.0024995        1
    53         1.9822701        1       119         6.1102491        1
    54         2.0932423        1       120         6.1688726        1
    55         2.2720151        1       121         6.2255299        1
    56         2.4116312        1       122         6.7714766        1
    57         2.4457592        1       123         6.7864232        1
    58         2.5354689        1       124         6.8740353        1
    59         2.5727438        1       125         6.9137191        1
    60         2.5878066        1       126         7.1226685        1
    61         2.8335002        1       127         7.3486887        1
    62         2.9704389        1       128         7.4467605        1
    63         2.9933475        1       129         7.6254255        1
    64         3.0877395        1       130         8.7792994        1
    65         3.0948249        1       131        13.4101446        1
    66         3.1218906        1       132        13.8173321        1
------------------------------------------------------------------------
  -20.6267812523689       -15.6991388172198       -11.2698330601487     
  -1.52034375738443       -1.07652809895326      -0.860355323930155     
 -0.694868166506297      -0.678630988483158      -0.641631802371926     
 -0.563498682303763      -0.538705615607264      -0.401049452776295     
  0.106731804219666       0.142189163588609       0.205045491402284     
  0.206051398319982       0.244910425053898       0.352896980364419     
  0.361743350094416       0.455478268284847       0.540951718364009     
  0.584159286367985       0.604693195430632       0.604848509482494     
  0.617271534569172       0.640712423516103       0.692670987674457     
  0.718946098533639       0.767015011011477       0.796265665943218     
  0.819145362460063       0.854886214630712       0.947658696459758     
   1.02661519504370        1.03563151161754        1.09430940471531     
   1.15418679705582        1.16872071388198        1.23958454023857     
   1.25988307562742        1.31802827833551        1.38291351493122     
   1.38380226550196        1.49140512587949        1.50428738639203     
   1.55743719461015        1.58881741757324        1.64745532497583     
   1.68610354481271        1.73004520005036        1.76685190823574     
   1.90268314163828        1.98227007494349        2.09324231333873     
   2.27201508590428        2.41163118224606        2.44575923306201     
   2.53546888805843        2.57274380489093        2.58780662904380     
   2.83350017364401        2.97043889414973        2.99334753763267     
   3.08773951882556        3.09482488913154        3.12189056551492     
   3.20552874332786        3.21508644735841        3.26127317050992     
   3.28500674781908        3.38276087118453        3.41275184457794     
   3.49950701586486        3.57100803560997        3.58386017910995     
   3.67632695381672        3.69582763657883        3.73857903636693     
   3.81989178692474        3.86769530778120        3.97401925507674     
   3.97799144326775        4.03597914322016        4.04740742607644     
   4.07823389485106        4.13763117561235        4.18346050012509     
   4.22416269560933        4.30683656448902        4.33080029034940     
   4.40841529063302        4.42440704488033        4.42837332195453     
   4.52663854611097        4.57881478424940        4.65856562629587     
   4.70758570686549        4.79318501070603        4.90329065951438     
   4.93274537612750        5.03598817501552        5.09827921723023     
   5.21016533972050        5.21553224286182        5.30357503945019     
   5.35421515069234        5.36419952849943        5.37170008143984     
   5.50927729724138        5.51987486310178        5.55409337891525     
   5.56869684846280        5.58922388886041        5.62198859379493     
   5.65397974545061        5.73817892152407        5.86870114911417     
   6.00249953224746        6.11024908378069        6.16887263069476     
   6.22552994052830        6.77147663215816        6.78642324283907     
   6.87403527035998        6.91371910876104        7.12266846534750     
   7.34868871263645        7.44676052755471        7.62542545980470     
   8.77929941756578        13.4101446211153        13.8173320544611     
 @CHECKOUT-I, Total execution time (CPU/WALL):        4.54/       5.06 seconds.
--executable xvtran finished with status     0 in        5.07 seconds (walltime).
 --invoking executable--
/home/orgChemistry/bin/cfour_v21/bin/xintprc
 @GETMEM-I,  Allocated    4768 MB of main memory.
  @GMOIAA-I, Processing MO integrals for spin case AA.
  @GMOIAA-I, Generation of integral list completed.
                      TYPE                NUMBER
                      ----               --------
                      PPPP                     0
                      PPPH              10454400
                      PPHH               1037520
                      PHPH                566280
                      PHHH                112320
                      HHHH                  3081

                     TOTAL              12173601

  @FORMT2-I, Second-order MP correlation energies:
            ------------------------------------------------
            E(SCF)                  =   -168.893672441496 a.u.
            E2(AA)                  =     -0.073237423569 a.u.
            E2(AB)                  =     -0.459297145565 a.u.
            E2(TOT)                 =     -0.605771992702 a.u.
            Total MP2 energy        =   -169.499444434198 a.u.
            ------------------------------------------------
   Largest T2 amplitudes for spin case AB:
       _       _                 _       _                 _       _
   i   j   a   b             i   j   a   b             i   j   a   b
-----------------------------------------------------------------------------
[ 11  11  13  13]-0.06758 [  9   9  13  13]-0.05000 [ 11   9  13  13] 0.04644
[  9  11  13  13] 0.04644 [ 11   8  13  31] 0.02513 [  8  11  31  13] 0.02513
[ 12  12  21  21]-0.02432 [  8   8  31  31]-0.02359 [  9   8  13  31]-0.02127
[  8   9  31  13]-0.02127 [  6   6  13  13]-0.01989 [ 12  12  13  13]-0.01937
[ 11  11  32  13]-0.01815 [ 11  11  13  32]-0.01815 [  7   7  21  21]-0.01580
-----------------------------------------------------------------------------
   Norm of T2AB vector (  2073600 symmetry allowed elements):  0.3602261341.
-----------------------------------------------------------------------------
 @CHECKOUT-I, Total execution time (CPU/WALL):        0.84/       1.78 seconds.
--executable xintprc finished with status     0 in        1.78 seconds (walltime).
  calling xecc 
 --invoking executable--
/home/orgChemistry/bin/cfour_v21/bin/xecc
 @GETMEM-I,  Allocated    4768 MB of main memory.
 CCSD(T) energy will be calculated.
 AO based algorithm is used. 
   Frozen core orbitals in analytic derivative calculation
 Largest T2 amplitudes for spin case AB:
        _       _                 _       _                 _       _
    i   j   a   b             i   j   a   b             i   j   a   b
 -----------------------------------------------------------------------------
 [ 11  11  13  13]-0.06758 [  9   9  13  13]-0.05000 [ 11   9  13  13] 0.04644
 [  9  11  13  13] 0.04644 [ 11   8  13  31] 0.02513 [  8  11  31  13] 0.02513
 [ 12  12  21  21]-0.02432 [  8   8  31  31]-0.02359 [  9   8  13  31]-0.02127
 [  8   9  31  13]-0.02127 [  6   6  13  13]-0.01989 [ 12  12  13  13]-0.01937
 [ 11  11  32  13]-0.01815 [ 11  11  13  32]-0.01815 [  7   7  21  21]-0.01580
 -----------------------------------------------------------------------------
 Norm of T2AB vector (  2073600 symmetry allowed elements):  0.3602261341.
 -----------------------------------------------------------------------------
 The total correlation energy is -0.605771992702 a.u.
 Resorts of amplitudes and integrals (CPU/WALL):       0.06/       0.11 seconds.
 Starting iterative solution of the CC equations.
 The DIIS procedure is used to accelerate convergence.
 5 expansion vectors are used in the DIIS extrapolation.
 Convergence criterium is 10**(-10).
 Maximum number of iterations is 100.
 >>>>>>>>>>>>>>>>>>>>>>>>>>>>>>>>>>>>>>>>>>>>>>>>>>>>>>>>>>>>>>>>>>>>>>>>>>>>>>>
 Iteration Nr.   1 started:
 Generation of Intermediates required (CPU/WALL):      0.84/       1.24 seconds.
 Transformation of t(ab,ij) amplitudes required    0.0 seconds.
 Contraction of t(mu nu,ij) with AO integrals required    8.0 seconds.
 Backtransformation of t(mu nu,ij) increments required    0.0 seconds.
 Construction of Hbar required (CPU/WALL):             8.65/       9.19 seconds.
   Frozen core orbitals in analytic derivative calculation
 Amplitude changes are:
 -------------------------------------------------------------------
              Spin      RMS          Max.      Max. change for
  Amplitude   Case     Change       Change       i    j    a    b
 -------------------------------------------------------------------
     T1        AA    0.0000358101-0.0227465719    9        13
     T2        AB    0.0000000258-0.0064360403   12   12   13   13
 -------------------------------------------------------------------
 The total correlation energy is -0.599423095041 a.u.
 Convergence information after     1 iterations: 
 Largest element of residual vector : -0.22746572E-01.
 Largest element of DIIS residual   : -0.22746572E-01.
 Iteration Nr.   1 required (CPU/WALL):                9.68/      10.79 seconds.
 >>>>>>>>>>>>>>>>>>>>>>>>>>>>>>>>>>>>>>>>>>>>>>>>>>>>>>>>>>>>>>>>>>>>>>>>>>>>>>>
 Iteration Nr.   2 started:
 Generation of Intermediates required (CPU/WALL):      0.82/       1.22 seconds.
 Transformation of t(ab,ij) amplitudes required    0.0 seconds.
 Contraction of t(mu nu,ij) with AO integrals required    7.9 seconds.
 Backtransformation of t(mu nu,ij) increments required    0.0 seconds.
 Construction of Hbar required (CPU/WALL):             8.61/       9.17 seconds.
   Frozen core orbitals in analytic derivative calculation
 Amplitude changes are:
 -------------------------------------------------------------------
              Spin      RMS          Max.      Max. change for
  Amplitude   Case     Change       Change       i    j    a    b
 -------------------------------------------------------------------
     T1        AA    0.0000058632 0.0029408439    7        21
     T2        AB    0.0000000140-0.0113113175   11   11   13   13
 -------------------------------------------------------------------
 The total correlation energy is -0.620012242079 a.u.
 Convergence information after     2 iterations: 
 Largest element of residual vector : -0.11311318E-01.
 Largest element of DIIS residual   : -0.97456463E-02.
 Iteration Nr.   2 required (CPU/WALL):                9.70/      10.84 seconds.
 >>>>>>>>>>>>>>>>>>>>>>>>>>>>>>>>>>>>>>>>>>>>>>>>>>>>>>>>>>>>>>>>>>>>>>>>>>>>>>>
 Iteration Nr.   3 started:
 Generation of Intermediates required (CPU/WALL):      0.82/       1.20 seconds.
 Transformation of t(ab,ij) amplitudes required    0.0 seconds.
 Contraction of t(mu nu,ij) with AO integrals required    8.0 seconds.
 Backtransformation of t(mu nu,ij) increments required    0.0 seconds.
 Construction of Hbar required (CPU/WALL):             8.65/       9.20 seconds.
   Frozen core orbitals in analytic derivative calculation
 Amplitude changes are:
 -------------------------------------------------------------------
              Spin      RMS          Max.      Max. change for
  Amplitude   Case     Change       Change       i    j    a    b
 -------------------------------------------------------------------
     T1        AA    0.0000063496-0.0045985555    9        13
     T2        AB    0.0000000046-0.0031551644   12   12   13   13
 -------------------------------------------------------------------
 The total correlation energy is -0.619142345965 a.u.
 Convergence information after     3 iterations: 
 Largest element of residual vector : -0.45985555E-02.
 Largest element of DIIS residual   :  0.30002946E-02.
 Iteration Nr.   3 required (CPU/WALL):                9.80/      10.96 seconds.
 >>>>>>>>>>>>>>>>>>>>>>>>>>>>>>>>>>>>>>>>>>>>>>>>>>>>>>>>>>>>>>>>>>>>>>>>>>>>>>>
 Iteration Nr.   4 started:
 Generation of Intermediates required (CPU/WALL):      0.82/       1.21 seconds.
 Transformation of t(ab,ij) amplitudes required    0.0 seconds.
 Contraction of t(mu nu,ij) with AO integrals required    8.0 seconds.
 Backtransformation of t(mu nu,ij) increments required    0.0 seconds.
 Construction of Hbar required (CPU/WALL):             8.74/       9.30 seconds.
   Frozen core orbitals in analytic derivative calculation
 Amplitude changes are:
 -------------------------------------------------------------------
              Spin      RMS          Max.      Max. change for
  Amplitude   Case     Change       Change       i    j    a    b
 -------------------------------------------------------------------
     T1        AA    0.0000013475 0.0005513824    8        31
     T2        AB    0.0000000016-0.0015318671   12   12   13   13
 -------------------------------------------------------------------
 The total correlation energy is -0.621495693548 a.u.
 Convergence information after     4 iterations: 
 Largest element of residual vector : -0.15318671E-02.
 Largest element of DIIS residual   : -0.12115448E-02.
 Iteration Nr.   4 required (CPU/WALL):                9.95/      11.18 seconds.
 >>>>>>>>>>>>>>>>>>>>>>>>>>>>>>>>>>>>>>>>>>>>>>>>>>>>>>>>>>>>>>>>>>>>>>>>>>>>>>>
 Iteration Nr.   5 started:
 Generation of Intermediates required (CPU/WALL):      0.82/       1.21 seconds.
 Transformation of t(ab,ij) amplitudes required    0.0 seconds.
 Contraction of t(mu nu,ij) with AO integrals required    7.9 seconds.
 Backtransformation of t(mu nu,ij) increments required    0.0 seconds.
 Construction of Hbar required (CPU/WALL):             8.63/       9.17 seconds.
   Frozen core orbitals in analytic derivative calculation
 Amplitude changes are:
 -------------------------------------------------------------------
              Spin      RMS          Max.      Max. change for
  Amplitude   Case     Change       Change       i    j    a    b
 -------------------------------------------------------------------
     T1        AA    0.0000008863-0.0006103249   12        17
     T2        AB    0.0000000007-0.0009010883   12   12   13   13
 -------------------------------------------------------------------
 The total correlation energy is -0.621842523677 a.u.
 Convergence information after     5 iterations: 
 Largest element of residual vector : -0.90108825E-03.
 Largest element of DIIS residual   : -0.57219032E-03.
 Iteration Nr.   5 required (CPU/WALL):                9.92/      11.18 seconds.
 Largest T1 amplitudes for spin case AA:
    i       a                 i       a                 i       a    
 -----------------------------------------------------------------------------
 [  9      13    ]-0.02921 [ 12      21    ] 0.02008 [ 11      26    ]-0.01635
 [ 12      14    ] 0.01601 [ 11      13    ] 0.01586 [ 12      17    ]-0.01313
 [  9      26    ] 0.01262 [ 11      32    ]-0.00982 [ 11      30    ] 0.00906
 [ 12      16    ] 0.00847 [  9      23    ]-0.00830 [ 11      19    ]-0.00805
 [ 11      42    ]-0.00684 [  7      27    ]-0.00660 [ 11      36    ]-0.00637
 -----------------------------------------------------------------------------
 Norm of T1AA vector (     1440 symmetry allowed elements):  0.0642389278.
 -----------------------------------------------------------------------------
 Largest T2 amplitudes for spin case AB:
        _       _                 _       _                 _       _
    i   j   a   b             i   j   a   b             i   j   a   b
 -----------------------------------------------------------------------------
 [ 11  11  13  13]-0.08503 [ 11   9  13  13] 0.05903 [  9  11  13  13] 0.05903
 [  9   9  13  13]-0.05741 [ 12  12  13  13]-0.03896 [ 12  12  21  21]-0.03029
 [  8   8  31  31]-0.02417 [  6   6  13  13]-0.02236 [ 11  11  32  13]-0.02185
 [ 11  11  13  32]-0.02185 [ 11   8  13  31] 0.02135 [  8  11  31  13] 0.02135
 [ 12   7  21  21]-0.01915 [  7  12  21  21]-0.01915 [ 10  10  25  25]-0.01841
 -----------------------------------------------------------------------------
 Norm of T2AB vector (  2073600 symmetry allowed elements):  0.4011308118.
 -----------------------------------------------------------------------------
 >>>>>>>>>>>>>>>>>>>>>>>>>>>>>>>>>>>>>>>>>>>>>>>>>>>>>>>>>>>>>>>>>>>>>>>>>>>>>>>
 Iteration Nr.   6 started:
 Generation of Intermediates required (CPU/WALL):      0.82/       1.21 seconds.
 Transformation of t(ab,ij) amplitudes required    0.0 seconds.
 Contraction of t(mu nu,ij) with AO integrals required    8.0 seconds.
 Backtransformation of t(mu nu,ij) increments required    0.0 seconds.
 Construction of Hbar required (CPU/WALL):             8.70/       9.29 seconds.
   Frozen core orbitals in analytic derivative calculation
 Amplitude changes are:
 -------------------------------------------------------------------
              Spin      RMS          Max.      Max. change for
  Amplitude   Case     Change       Change       i    j    a    b
 -------------------------------------------------------------------
     T1        AA    0.0000001880-0.0001345518    9        13
     T2        AB    0.0000000003-0.0003987973   12   12   13   13
 -------------------------------------------------------------------
 The total correlation energy is -0.621871441250 a.u.
 Convergence information after     6 iterations: 
 Largest element of residual vector : -0.39879734E-03.
 Largest element of DIIS residual   : -0.30522220E-03.
 Iteration Nr.   6 required (CPU/WALL):               10.00/      11.32 seconds.
 >>>>>>>>>>>>>>>>>>>>>>>>>>>>>>>>>>>>>>>>>>>>>>>>>>>>>>>>>>>>>>>>>>>>>>>>>>>>>>>
 Iteration Nr.   7 started:
 Generation of Intermediates required (CPU/WALL):      0.82/       1.22 seconds.
 Transformation of t(ab,ij) amplitudes required    0.0 seconds.
 Contraction of t(mu nu,ij) with AO integrals required    7.9 seconds.
 Backtransformation of t(mu nu,ij) increments required    0.0 seconds.
 Construction of Hbar required (CPU/WALL):             8.59/       9.13 seconds.
   Frozen core orbitals in analytic derivative calculation
 Amplitude changes are:
 -------------------------------------------------------------------
              Spin      RMS          Max.      Max. change for
  Amplitude   Case     Change       Change       i    j    a    b
 -------------------------------------------------------------------
     T1        AA    0.0000000787-0.0000791151   12        17
     T2        AB    0.0000000001-0.0002106550   12   12   13   13
 -------------------------------------------------------------------
 The total correlation energy is -0.621873932056 a.u.
 Convergence information after     7 iterations: 
 Largest element of residual vector : -0.21065505E-03.
 Largest element of DIIS residual   : -0.16140447E-03.
 Iteration Nr.   7 required (CPU/WALL):                9.89/      11.14 seconds.
 >>>>>>>>>>>>>>>>>>>>>>>>>>>>>>>>>>>>>>>>>>>>>>>>>>>>>>>>>>>>>>>>>>>>>>>>>>>>>>>
 Iteration Nr.   8 started:
 Generation of Intermediates required (CPU/WALL):      0.82/       1.21 seconds.
 Transformation of t(ab,ij) amplitudes required    0.0 seconds.
 Contraction of t(mu nu,ij) with AO integrals required    8.0 seconds.
 Backtransformation of t(mu nu,ij) increments required    0.0 seconds.
 Construction of Hbar required (CPU/WALL):             8.71/       9.26 seconds.
   Frozen core orbitals in analytic derivative calculation
 Amplitude changes are:
 -------------------------------------------------------------------
              Spin      RMS          Max.      Max. change for
  Amplitude   Case     Change       Change       i    j    a    b
 -------------------------------------------------------------------
     T1        AA    0.0000000297-0.0000237184   12        14
     T2        AB    0.0000000001-0.0001145472   12   12   13   13
 -------------------------------------------------------------------
 The total correlation energy is -0.621874927085 a.u.
 Convergence information after     8 iterations: 
 Largest element of residual vector : -0.11454717E-03.
 Largest element of DIIS residual   : -0.64328184E-04.
 Iteration Nr.   8 required (CPU/WALL):               10.00/      11.27 seconds.
 >>>>>>>>>>>>>>>>>>>>>>>>>>>>>>>>>>>>>>>>>>>>>>>>>>>>>>>>>>>>>>>>>>>>>>>>>>>>>>>
 Iteration Nr.   9 started:
 Generation of Intermediates required (CPU/WALL):      0.82/       1.21 seconds.
 Transformation of t(ab,ij) amplitudes required    0.0 seconds.
 Contraction of t(mu nu,ij) with AO integrals required    7.9 seconds.
 Backtransformation of t(mu nu,ij) increments required    0.0 seconds.
 Construction of Hbar required (CPU/WALL):             8.64/       9.17 seconds.
   Frozen core orbitals in analytic derivative calculation
 Amplitude changes are:
 -------------------------------------------------------------------
              Spin      RMS          Max.      Max. change for
  Amplitude   Case     Change       Change       i    j    a    b
 -------------------------------------------------------------------
[...]
                          CHIzz =        92.77253
                          CHIxy =        41.65306
                          CHIxz =       118.30166
                          CHIyz =        76.19947
                             Z-matrix center   4:
  Atomic charge is                      1
       XX =   -0.0353730983  YY =   -0.1026810091  ZZ =    0.1380541074
       XY =    0.0619840352  XZ =   -0.1760444187  YZ =   -0.1133923999
                          In kHz, Mass number   2
                          CHIxx =       -23.77069
                          CHIyy =       -69.00155
                          CHIzz =        92.77224
                          CHIxy =        41.65322
                          CHIxz =      -118.30170
                          CHIyz =       -76.19960
                             Z-matrix center   5:
  Atomic charge is                      1
       XX =   -0.1316223272  YY =    0.2807046048  ZZ =   -0.1490822776
       XY =    0.0504716783  XZ =    0.0000000272  YZ =    0.0000002083
                          In kHz, Mass number   2
                          CHIxx =       -88.45009
                          CHIyy =       188.63326
                          CHIzz =      -100.18316
                          CHIxy =        33.91693
                          CHIxz =         0.00002
                          CHIyz =         0.00014
                             Z-matrix center   6:
  Atomic charge is                      8
       XX =   -0.5213889608  YY =   -1.4436974425  ZZ =    1.9650864035
       XY =    1.9042697826  XZ =    0.0000000881  YZ =   -0.0000001006
   Electrostatic potential at atomic centers 
          Z-matrix                             Potential
           center                               [<1/r>]
              1                            -14.7300021855
              2                            -18.2776481937
              3                             -1.0767956921
              4                             -1.0767957088
              5                             -1.0890335044
              6                            -22.2901968868
 
  Mulliken population analysis of SCF density.
   Total density is analyzed.
 
  Population analysis by orbitals.
 -------------------------------------------------------
     Z-matrix
      Center          Function          Population
 -------------------------------------------------------
         1                S              1.99916507
         1                S              1.49518359
         1                S             -0.02072431
         1                S             -0.23551083
         1                P              1.01020543
         1                P             -0.04124143
         1                P             -0.13044445
         1                P              1.19542046
         1                P             -0.07317955
         1                P             -0.15595662
         1                P              1.24811490
         1                P             -0.08122381
         1                P             -0.15643676
         1                D              0.00331452
         1                D              0.00725513
         1                D              0.00487126
         1                D              0.01695184
         1                D              0.00418134
         1                D              0.00616555
         1                D              0.00396009
         1                D              0.00913412
         1                D              0.00183726
         1                D              0.00635083
         1                D              0.00301200
         1                D              0.00686138
         1                F              0.00041546
         1                F              0.00156677
         1                F              0.00030947
         1                F              0.00080183
         1                F             -0.00003023
         1                F              0.00102498
         1                F              0.00062761
         1                F             -0.00000723
         1                F              0.00068724
         1                F              0.00009059
         2                S              1.99840550
         2                S              1.76476977
         2                S             -0.00209680
         2                S             -0.10368171
         2                P              1.12341901
         2                P             -0.03689904
         2                P             -0.14037252
         2                P              1.52427308
         2                P             -0.03377077
         2                P             -0.06139765
         2                P              0.76143829
         2                P              0.00760889
         2                P             -0.01518277
         2                D              0.00281393
         2                D              0.02000336
         2                D              0.00777076
         2                D              0.02869276
         2                D              0.00205346
         2                D              0.02093704
         2                D              0.00185886
         2                D              0.01344572
         2                D              0.00175501
         2                D              0.01651274
         2                D              0.00137369
         2                D              0.00400089
         2                F              0.00066306
         2                F              0.00237402
         2                F              0.00052976
         2                F              0.00191624
         2                F              0.00157003
         2                F              0.00049375
         2                F              0.00060741
         2                F              0.00008690
         2                F              0.00025860
         2                F              0.00031782
         3                S              1.36809976
         3                S             -0.20556805
         3                S             -0.29056847
         3                P              0.00252545
         3                P              0.00734785
         3                P              0.00142787
         3                P              0.00656513
         3                P              0.00495321
         3                P              0.00592943
         3                D              0.00026963
         3                D              0.00019592
         3                D              0.00076118
         3                D              0.00026309
         3                D              0.00040412
         3                D              0.00042463
         4                S              1.36809979
         4                S             -0.20556806
         4                S             -0.29056847
         4                P              0.00252545
         4                P              0.00734785
         4                P              0.00142787
         4                P              0.00656512
         4                P              0.00495321
         4                P              0.00592943
         4                D              0.00026963
         4                D              0.00019592
         4                D              0.00076118
         4                D              0.00026309
         4                D              0.00040412
         4                D              0.00042463
         5                S              1.38013585
         5                S             -0.22139313
         5                S             -0.28469630
         5                P              0.00080977
         5                P              0.00445815
         5                P              0.00729069
         5                P              0.00631240
         5                P              0.00094776
         5                P              0.00733307
         5                D              0.00016742
         5                D              0.00071543
         5                D              0.00005309
         5                D              0.00065591
         5                D              0.00063242
         5                D              0.00015383
         6                S              1.99797160
         6                S              1.85955971
         6                S             -0.00273472
         6                S             -0.02629496
         6                P              1.54963538
         6                P             -0.00701336
         6                P             -0.03197896
         6                P              1.68168211
         6                P             -0.00672910
         6                P             -0.02614811
         6                P              1.16181861
         6                P              0.01454191
         6                P              0.02643451
         6                D              0.00085003
         6                D              0.00588808
         6                D              0.00245872
         6                D              0.01343014
         6                D              0.00082785
         6                D              0.01031396
         6                D              0.00045085
         6                D              0.00359058
         6                D              0.00050188
         6                D              0.00560421
         6                D              0.00051284
         6                D              0.00217622
         6                F              0.00021005
         6                F              0.00114435
         6                F              0.00016617
         6                F              0.00076559
         6                F              0.00072889
         6                F              0.00025571
         6                F              0.00018837
         6                F              0.00000422
         6                F              0.00016311
         6                F              0.00008306
 -------------------------------------------------------
  Population analysis by atoms (atomic charges).
 -------------------------------------------------------
     Z-matrix
      Center          Function          Population
 -------------------------------------------------------
         1                               6.13275348
         2                               6.91654912
         3                               0.90303075
         4                               0.90303076
         5                               0.90357639
         6                               8.24105951
 -------------------------------------------------------
 
  Mulliken population analysis of CCSD(T) density.
   Total density is analyzed.
 
  Population analysis by orbitals.
 -------------------------------------------------------
     Z-matrix
      Center          Function          Population
 -------------------------------------------------------
         1                S              1.99831975
         1                S              1.49248549
         1                S             -0.01196569
         1                S             -0.22112007
         1                P              1.04099772
         1                P             -0.05235916
         1                P             -0.12031055
         1                P              1.20378539
         1                P             -0.07781740
         1                P             -0.14735808
         1                P              1.25036918
         1                P             -0.08306443
         1                P             -0.14514685
         1                D              0.00420190
         1                D              0.00798212
         1                D              0.00624883
         1                D              0.01783207
         1                D              0.00610790
         1                D              0.00962409
         1                D              0.00498440
         1                D              0.00986304
         1                D              0.00390696
         1                D              0.00961926
         1                D              0.00402803
         1                D              0.00831970
         1                F              0.00060582
         1                F              0.00171111
         1                F              0.00086813
         1                F              0.00129405
         1                F              0.00067382
         1                F              0.00140828
         1                F              0.00079854
         1                F              0.00052764
         1                F              0.00109319
         1                F              0.00035990
         2                S              1.99761655
         2                S              1.74169293
         2                S              0.00579737
         2                S             -0.08761872
         2                P              1.11925353
         2                P             -0.05228211
         2                P             -0.13037152
         2                P              1.47117356
         2                P             -0.05063548
         2                P             -0.04858537
         2                P              0.87853764
         2                P             -0.00329103
         2                P             -0.04365387
         2                D              0.00406333
         2                D              0.02227208
         2                D              0.00921254
         2                D              0.02949734
         2                D              0.00340395
         2                D              0.02005466
         2                D              0.00320142
         2                D              0.01596278
         2                D              0.00358415
         2                D              0.01792486
         2                D              0.00241404
         2                D              0.00646467
         2                F              0.00085259
         2                F              0.00267413
         2                F              0.00081056
         2                F              0.00229216
         2                F              0.00177701
         2                F              0.00077729
         2                F              0.00078720
         2                F              0.00041708
         2                F              0.00056854
         2                F              0.00038202
         3                S              1.36088381
         3                S             -0.22523019
         3                S             -0.28612052
         3                P              0.00312683
         3                P              0.00810092
         3                P              0.00209107
         3                P              0.00789636
         3                P              0.00533049
         3                P              0.00445513
         3                D              0.00037131
         3                D              0.00031468
         3                D              0.00085738
         3                D              0.00032065
         3                D              0.00056083
         3                D              0.00052644
         4                S              1.36088383
         4                S             -0.22523021
         4                S             -0.28612053
         4                P              0.00312683
         4                P              0.00810092
         4                P              0.00209107
         4                P              0.00789636
         4                P              0.00533049
         4                P              0.00445514
         4                D              0.00037131
         4                D              0.00031468
         4                D              0.00085738
         4                D              0.00032065
         4                D              0.00056083
         4                D              0.00052644
         5                S              1.37380253
         5                S             -0.23735775
         5                S             -0.26947600
         5                P              0.00153452
         5                P              0.00681273
         5                P              0.00748518
         5                P              0.00284984
         5                P              0.00165251
         5                P              0.00884919
         5                D              0.00022954
         5                D              0.00091038
         5                D              0.00011936
         5                D              0.00070276
         5                D              0.00080105
         5                D              0.00020891
         6                S              1.99733575
         6                S              1.84257649
         6                S              0.00558330
         6                S             -0.03457048
         6                P              1.53989699
         6                P             -0.02386758
         6                P             -0.02187723
         6                P              1.66587123
         6                P             -0.02498822
         6                P             -0.01514237
         6                P              1.17083605
         6                P             -0.00213844
         6                P             -0.01833288
         6                D              0.00203209
         6                D              0.00861383
         6                D              0.00414737
         6                D              0.01554474
         6                D              0.00242679
         6                D              0.01233175
         6                D              0.00170426
         6                D              0.00658937
         6                D              0.00219466
         6                D              0.00856132
         6                D              0.00154978
         6                D              0.00462771
         6                F              0.00039056
         6                F              0.00147310
         6                F              0.00047735
         6                F              0.00112490
         6                F              0.00110488
         6                F              0.00055415
         6                F              0.00036384
         6                F              0.00032867
         6                F              0.00046405
         6                F              0.00021518
 -------------------------------------------------------
  Population analysis by atoms (atomic charges).
 -------------------------------------------------------
     Z-matrix
      Center          Function          Population
 -------------------------------------------------------
         1                               6.22887408
         2                               6.94702786
         3                               0.88348517
         4                               0.88348518
         5                               0.89912475
         6                               8.15800296
 -------------------------------------------------------
 @CHECKOUT-I, Total execution time (CPU/WALL):        0.08/       0.24 seconds.
--executable xprops finished with status     0 in        0.25 seconds (walltime).
  The final electronic energy is      -169.543339366147478 a.u. 
  This computation required                        21453.96 seconds (walltime).

real	357m33.964s
user	268m0.782s
sys	38m20.522s
