 Entering Gaussian System, Link 0=/home/orgChemistry/bin/gaussian16-C.01/g16/g16
 Initial command:
 /home/orgChemistry/bin/gaussian16-C.01/g16/l1.exe "/scratch/agSchreiner/ruthm/139853/gaussian_iso5_tt.iso5_tt_b3lyp_6311_G_3df_3dp/Gau-143480.inp" -scrdir="/scratch/agSchreiner/ruthm/139853/gaussian_iso5_tt.iso5_tt_b3lyp_6311_G_3df_3dp/"
 Entering Link 1 = /home/orgChemistry/bin/gaussian16-C.01/g16/l1.exe PID=    143484.
  
 Copyright (c) 1988-2019, Gaussian, Inc.  All Rights Reserved.
  
 This is part of the Gaussian(R) 16 program.  It is based on
 the Gaussian(R) 09 system (copyright 2009, Gaussian, Inc.),
 the Gaussian(R) 03 system (copyright 2003, Gaussian, Inc.),
 the Gaussian(R) 98 system (copyright 1998, Gaussian, Inc.),
 the Gaussian(R) 94 system (copyright 1995, Gaussian, Inc.),
 the Gaussian 92(TM) system (copyright 1992, Gaussian, Inc.),
 the Gaussian 90(TM) system (copyright 1990, Gaussian, Inc.),
 the Gaussian 88(TM) system (copyright 1988, Gaussian, Inc.),
 the Gaussian 86(TM) system (copyright 1986, Carnegie Mellon
 University), and the Gaussian 82(TM) system (copyright 1983,
 Carnegie Mellon University). Gaussian is a federally registered
 trademark of Gaussian, Inc.
  
 This software contains proprietary and confidential information,
 including trade secrets, belonging to Gaussian, Inc.
  
 This software is provided under written license and may be
 used, copied, transmitted, or stored only in accord with that
 written license.
  
 The following legend is applicable only to US Government
 contracts under FAR:
  
                    RESTRICTED RIGHTS LEGEND
  
 Use, reproduction and disclosure by the US Government is
 subject to restrictions as set forth in subparagraphs (a)
 and (c) of the Commercial Computer Software - Restricted
 Rights clause in FAR 52.227-19.
  
 Gaussian, Inc.
 340 Quinnipiac St., Bldg. 40, Wallingford CT 06492
  
  
 ---------------------------------------------------------------
 Warning -- This program may not be used in any manner that
 competes with the business of Gaussian, Inc. or will provide
 assistance to any competitor of Gaussian, Inc.  The licensee
 of this program is prohibited from giving any competitor of
 Gaussian, Inc. access to this program.  By using this program,
 the user acknowledges that Gaussian, Inc. is engaged in the
 business of creating and licensing software in the field of
 computational chemistry and represents and warrants to the
 licensee that it is not a competitor of Gaussian, Inc. and that
 it will not use this program in any manner prohibited above.
 ---------------------------------------------------------------
  

 Cite this work as:
 Gaussian 16, Revision C.01,
 M. J. Frisch, G. W. Trucks, H. B. Schlegel, G. E. Scuseria, 
 M. A. Robb, J. R. Cheeseman, G. Scalmani, V. Barone, 
 G. A. Petersson, H. Nakatsuji, X. Li, M. Caricato, A. V. Marenich, 
 J. Bloino, B. G. Janesko, R. Gomperts, B. Mennucci, H. P. Hratchian, 
 J. V. Ortiz, A. F. Izmaylov, J. L. Sonnenberg, D. Williams-Young, 
 F. Ding, F. Lipparini, F. Egidi, J. Goings, B. Peng, A. Petrone, 
 T. Henderson, D. Ranasinghe, V. G. Zakrzewski, J. Gao, N. Rega, 
 G. Zheng, W. Liang, M. Hada, M. Ehara, K. Toyota, R. Fukuda, 
 J. Hasegawa, M. Ishida, T. Nakajima, Y. Honda, O. Kitao, H. Nakai, 
 T. Vreven, K. Throssell, J. A. Montgomery, Jr., J. E. Peralta, 
 F. Ogliaro, M. J. Bearpark, J. J. Heyd, E. N. Brothers, K. N. Kudin, 
 V. N. Staroverov, T. A. Keith, R. Kobayashi, J. Normand, 
 K. Raghavachari, A. P. Rendell, J. C. Burant, S. S. Iyengar, 
 J. Tomasi, M. Cossi, J. M. Millam, M. Klene, C. Adamo, R. Cammi, 
 J. W. Ochterski, R. L. Martin, K. Morokuma, O. Farkas, 
 J. B. Foresman, and D. J. Fox, Gaussian, Inc., Wallingford CT, 2019.
 
 ******************************************
 Gaussian 16:  ES64L-G16RevC.01  3-Jul-2019
                26-Jan-2021 
 ******************************************
 %Chk=file_name
 %NProcShared=24
 Will use up to   24 processors via shared memory.
 %mem=48000mb
 -------------------------------------------
 #p b3lyp/6-311++G(3df,3pd) opt freq=noraman
 -------------------------------------------
 1/18=20,19=15,26=3,38=1/1,3;
 2/9=110,12=2,17=6,18=5,40=1/2;
 3/5=4,6=6,7=1616,11=2,25=1,30=1,71=1,74=-5/1,2,3;
 4//1;
 5/5=2,38=5/2;
 6/7=2,8=2,9=2,10=2,28=1/1;
 7//1,2,3,16;
 1/18=20,19=15,26=3/3(2);
 2/9=110/2;
 99//99;
 2/9=110/2;
 3/5=4,6=6,7=1616,11=2,25=1,30=1,71=1,74=-5/1,2,3;
 4/5=5,16=3,69=1/1;
 5/5=2,38=5/2;
 7//1,2,3,16;
 1/18=20,19=15,26=3/3(-5);
 2/9=110/2;
 6/7=2,8=2,9=2,10=2,19=2,28=1/1;
 99/9=1/99;
 Leave Link    1 at Tue Jan 26 00:24:27 2021, MaxMem=  6291456000 cpu:               4.1 elap:               0.3
 (Enter /home/orgChemistry/bin/gaussian16-C.01/g16/l101.exe)
 -----
 title
 -----
 Symbolic Z-matrix:
 Charge =  0 Multiplicity = 1
 6                    -2.45112   0.81509   0.00325 
 7                    -1.28592   0.27584  -0.03565 
 8                    -2.59861   2.15789   0.03259 
 1                    -3.33194   0.18273   0.01274 
 1                    -0.42875   0.84787  -0.04571 
 1                    -1.83997   2.75879   0.0255 
 
 ITRead=  0  0  0  0  0  0
 MicOpt= -1 -1 -1 -1 -1 -1
 NAtoms=      6 NQM=        6 NQMF=       0 NMMI=      0 NMMIF=      0
                NMic=       0 NMicF=      0.
                    Isotopes and Nuclear Properties:
 (Nuclear quadrupole moments (NQMom) in fm**2, nuclear magnetic moments (NMagM)
  in nuclear magnetons)

  Atom         1           2           3           4           5           6
 IAtWgt=          12          14          16           1           1           1
 AtmWgt=  12.0000000  14.0030740  15.9949146   1.0078250   1.0078250   1.0078250
 NucSpn=           0           2           0           1           1           1
 AtZEff=  -0.0000000  -0.0000000  -0.0000000  -0.0000000  -0.0000000  -0.0000000
 NQMom=    0.0000000   2.0440000   0.0000000   0.0000000   0.0000000   0.0000000
 NMagM=    0.0000000   0.4037610   0.0000000   2.7928460   2.7928460   2.7928460
 AtZNuc=   6.0000000   7.0000000   8.0000000   1.0000000   1.0000000   1.0000000
 Leave Link  101 at Tue Jan 26 00:24:30 2021, MaxMem=  6291456000 cpu:               8.0 elap:               0.4
 (Enter /home/orgChemistry/bin/gaussian16-C.01/g16/l103.exe)

 GradGradGradGradGradGradGradGradGradGradGradGradGradGradGradGradGradGrad
 Berny optimization.
 Initialization pass.
                           ----------------------------
                           !    Initial Parameters    !
                           ! (Angstroms and Degrees)  !
 --------------------------                            --------------------------
 ! Name  Definition              Value          Derivative Info.                !
 --------------------------------------------------------------------------------
 ! R1    R(1,2)                  1.2845         estimate D2E/DX2                !
 ! R2    R(1,3)                  1.3512         estimate D2E/DX2                !
 ! R3    R(1,4)                  1.0844         estimate D2E/DX2                !
 ! R4    R(2,5)                  1.0306         estimate D2E/DX2                !
 ! R5    R(3,6)                  0.9678         estimate D2E/DX2                !
 ! A1    A(2,1,3)              121.1227         estimate D2E/DX2                !
 ! A2    A(2,1,4)              119.4912         estimate D2E/DX2                !
 ! A3    A(3,1,4)              119.3861         estimate D2E/DX2                !
 ! A4    A(1,2,5)              121.4501         estimate D2E/DX2                !
 ! A5    A(1,3,6)              122.0938         estimate D2E/DX2                !
 ! D1    D(3,1,2,5)              0.0            estimate D2E/DX2                !
 ! D2    D(4,1,2,5)            180.0            estimate D2E/DX2                !
 ! D3    D(2,1,3,6)              0.0            estimate D2E/DX2                !
 ! D4    D(4,1,3,6)            180.0            estimate D2E/DX2                !
 --------------------------------------------------------------------------------
 Trust Radius=3.00D-01 FncErr=1.00D-07 GrdErr=1.00D-06 EigMax=2.50D+02 EigMin=1.00D-04
 Number of steps in this run=     24 maximum allowed number of steps=    100.
 GradGradGradGradGradGradGradGradGradGradGradGradGradGradGradGradGradGrad

 Leave Link  103 at Tue Jan 26 00:24:33 2021, MaxMem=  6291456000 cpu:               0.9 elap:               0.3
 (Enter /home/orgChemistry/bin/gaussian16-C.01/g16/l202.exe)
                          Input orientation:                          
 ---------------------------------------------------------------------
 Center     Atomic      Atomic             Coordinates (Angstroms)
 Number     Number       Type             X           Y           Z
 ---------------------------------------------------------------------
      1          6           0       -2.451122    0.815093    0.003249
      2          7           0       -1.285917    0.275836   -0.035653
      3          8           0       -2.598609    2.157885    0.032587
      4          1           0       -3.331944    0.182732    0.012735
      5          1           0       -0.428750    0.847870   -0.045714
      6          1           0       -1.839969    2.758787    0.025495
 ---------------------------------------------------------------------
                    Distance matrix (angstroms):
                    1          2          3          4          5
     1  C    0.000000
     2  N    1.284529   0.000000
     3  O    1.351186   2.295631   0.000000
     4  H    1.084351   2.048715   2.106990   0.000000
     5  H    2.023231   1.030563   2.535855   2.978987   0.000000
     6  H    2.037634   2.544751   0.967816   2.976947   2.376597
                    6
     6  H    0.000000
 Stoichiometry    CH3NO
 Framework group  CS[SG(CH3NO)]
 Deg. of freedom     9
 Full point group                 CS      NOp   2
 Largest Abelian subgroup         CS      NOp   2
 Largest concise Abelian subgroup C1      NOp   1
                         Standard orientation:                         
 ---------------------------------------------------------------------
 Center     Atomic      Atomic             Coordinates (Angstroms)
 Number     Number       Type             X           Y           Z
 ---------------------------------------------------------------------
      1          6           0        0.000000    0.502228    0.000000
      2          7           0        1.194597    0.030051    0.000000
      3          8           0       -1.074685   -0.316769   -0.000000
      4          1           0       -0.149494    1.576225    0.000000
      5          1           0        1.371483   -0.985219   -0.000000
      6          1           0       -0.986690   -1.280577   -0.000000
 ---------------------------------------------------------------------
 Rotational constants (GHZ):          57.4496538          11.9399421           9.8854235
 Leave Link  202 at Tue Jan 26 00:24:36 2021, MaxMem=  6291456000 cpu:               3.6 elap:               0.3
 (Enter /home/orgChemistry/bin/gaussian16-C.01/g16/l301.exe)
 Standard basis: 6-311++G(3df,3pd) (5D, 7F)
 Ernie: Thresh=  0.10000D-02 Tol=  0.10000D-05 Strict=F.
 There are   135 symmetry adapted cartesian basis functions of A'  symmetry.
 There are    57 symmetry adapted cartesian basis functions of A"  symmetry.
 There are   117 symmetry adapted basis functions of A'  symmetry.
 There are    54 symmetry adapted basis functions of A"  symmetry.
   171 basis functions,   237 primitive gaussians,   192 cartesian basis functions
    12 alpha electrons       12 beta electrons
       nuclear repulsion energy        70.5545155291 Hartrees.
 IExCor=  402 DFT=T Ex+Corr=B3LYP ExCW=0 ScaHFX=  0.200000
 ScaDFX=  0.800000  0.720000  1.000000  0.810000 ScalE2=  1.000000  1.000000
 IRadAn=      5 IRanWt=     -1 IRanGd=            0 ICorTp=0 IEmpDi=  4
 NAtoms=    6 NActive=    6 NUniq=    6 SFac= 1.00D+00 NAtFMM=   60 NAOKFM=F Big=F
 Integral buffers will be    131072 words long.
 Raffenetti 2 integral format.
 Two-electron integral symmetry is turned on.
 Leave Link  301 at Tue Jan 26 00:24:37 2021, MaxMem=  6291456000 cpu:               1.4 elap:               0.1
 (Enter /home/orgChemistry/bin/gaussian16-C.01/g16/l302.exe)
 NPDir=0 NMtPBC=     1 NCelOv=     1 NCel=       1 NClECP=     1 NCelD=      1
         NCelK=      1 NCelE2=     1 NClLst=     1 CellRange=     0.0.
 One-electron integrals computed using PRISM.
 One-electron integral symmetry used in STVInt
 NBasis=   171 RedAO= T EigKep=  2.51D-04  NBF=   117    54
 NBsUse=   171 1.00D-06 EigRej= -1.00D+00 NBFU=   117    54
 Precomputing XC quadrature grid using
 IXCGrd= 4 IRadAn=           5 IRanWt=          -1 IRanGd=           0 AccXCQ= 0.00D+00.
 Generated NRdTot=       0 NPtTot=           0 NUsed=           0 NTot=          32
 NSgBfM=   192   192   192   192   192 MxSgAt=     6 MxSgA2=     6.
 Leave Link  302 at Tue Jan 26 00:24:40 2021, MaxMem=  6291456000 cpu:               5.9 elap:               0.5
 (Enter /home/orgChemistry/bin/gaussian16-C.01/g16/l303.exe)
 DipDrv:  MaxL=1.
 Leave Link  303 at Tue Jan 26 00:24:44 2021, MaxMem=  6291456000 cpu:               6.2 elap:               0.5
 (Enter /home/orgChemistry/bin/gaussian16-C.01/g16/l401.exe)
 ExpMin= 3.60D-02 ExpMax= 8.59D+03 ExpMxC= 1.30D+03 IAcc=3 IRadAn=         5 AccDes= 0.00D+00
 Harris functional with IExCor=  402 and IRadAn=       5 diagonalized for initial guess.
 HarFok:  IExCor=  402 AccDes= 0.00D+00 IRadAn=         5 IDoV= 1 UseB2=F ITyADJ=14
 ICtDFT=  3500011 ScaDFX=  1.000000  1.000000  1.000000  1.000000
 FoFCou: FMM=F IPFlag=           0 FMFlag=      100000 FMFlg1=           0
         NFxFlg=           0 DoJE=T BraDBF=F KetDBF=T FulRan=T
         wScrn=  0.000000 ICntrl=       500 IOpCl=  0 I1Cent=   200000004 NGrid=           0
         NMat0=    1 NMatS0=      1 NMatT0=    0 NMatD0=    1 NMtDS0=    0 NMtDT0=    0
 Petite list used in FoFCou.
 Harris En= -169.949922577680    
 JPrj=0 DoOrth=F DoCkMO=F.
 Initial guess orbital symmetries:
       Occupied  (A') (A') (A') (A') (A') (A') (A') (A') (A") (A')
                 (A") (A')
       Virtual   (A") (A') (A') (A') (A") (A') (A') (A') (A') (A')
                 (A') (A") (A') (A") (A') (A') (A') (A') (A') (A')
                 (A") (A') (A") (A') (A") (A') (A') (A') (A") (A')
                 (A') (A") (A') (A') (A") (A') (A') (A") (A') (A')
                 (A') (A') (A') (A") (A") (A') (A') (A") (A') (A")
                 (A') (A') (A") (A') (A') (A') (A') (A") (A') (A')
                 (A") (A') (A') (A") (A') (A') (A") (A') (A") (A')
                 (A') (A') (A') (A") (A") (A') (A') (A") (A') (A")
                 (A') (A') (A') (A") (A') (A') (A") (A') (A') (A")
                 (A") (A') (A") (A') (A') (A") (A') (A') (A") (A')
                 (A") (A') (A") (A') (A') (A') (A") (A') (A") (A')
                 (A') (A') (A') (A") (A') (A') (A") (A") (A') (A")
                 (A') (A') (A") (A') (A') (A') (A") (A') (A") (A')
                 (A') (A') (A") (A") (A') (A') (A') (A") (A") (A")
                 (A') (A') (A') (A') (A') (A') (A") (A') (A") (A')
                 (A') (A") (A') (A") (A') (A') (A') (A') (A')
 The electronic state of the initial guess is 1-A'.
 Leave Link  401 at Tue Jan 26 00:24:49 2021, MaxMem=  6291456000 cpu:               8.5 elap:               0.7
 (Enter /home/orgChemistry/bin/gaussian16-C.01/g16/l502.exe)
 Keep R1 ints in memory in symmetry-blocked form, NReq=163318983.
 FoFCou: FMM=F IPFlag=           0 FMFlag=           0 FMFlg1=           0
         NFxFlg=           0 DoJE=F BraDBF=F KetDBF=F FulRan=T
         wScrn=  0.000000 ICntrl=       600 IOpCl=  0 I1Cent=           0 NGrid=           0
         NMat0=    1 NMatS0=  14706 NMatT0=    0 NMatD0=    1 NMtDS0=    0 NMtDT0=    0
 Petite list used in FoFCou.
 Closed shell SCF:
 Using DIIS extrapolation, IDIIS=  1040.
 NGot=  6291456000 LenX=  6236198572 LenY=  6236161267
 Requested convergence on RMS density matrix=1.00D-08 within 128 cycles.
 Requested convergence on MAX density matrix=1.00D-06.
 Requested convergence on             energy=1.00D-06.
 No special actions if energy rises.

 Cycle   1  Pass 1  IDiag  1:
 E= -169.816065656163    
 DIIS: error= 3.91D-02 at cycle   1 NSaved=   1.
 NSaved= 1 IEnMin= 1 EnMin= -169.816065656163     IErMin= 1 ErrMin= 3.91D-02
 ErrMax= 3.91D-02  0.00D+00 EMaxC= 1.00D-01 BMatC= 1.58D-01 BMatP= 1.58D-01
 IDIUse=3 WtCom= 6.09D-01 WtEn= 3.91D-01
 Coeff-Com:  0.100D+01
 Coeff-En:   0.100D+01
 Coeff:      0.100D+01
 Gap=     0.096 Goal=   None    Shift=    0.000
 GapD=    0.096 DampG=0.500 DampE=0.500 DampFc=0.2500 IDamp=-1.
 Damping current iteration by 2.50D-01
 RMSDP=3.53D-03 MaxDP=1.26D-01              OVMax= 2.67D-01

 Cycle   2  Pass 1  IDiag  1:
 E= -169.857438715923     Delta-E=       -0.041373059760 Rises=F Damp=T
 DIIS: error= 1.56D-02 at cycle   2 NSaved=   2.
 NSaved= 2 IEnMin= 2 EnMin= -169.857438715923     IErMin= 2 ErrMin= 1.56D-02
 ErrMax= 1.56D-02  0.00D+00 EMaxC= 1.00D-01 BMatC= 2.77D-02 BMatP= 1.58D-01
 IDIUse=3 WtCom= 8.44D-01 WtEn= 1.56D-01
 Coeff-Com: -0.575D+00 0.157D+01
 Coeff-En:   0.000D+00 0.100D+01
 Coeff:     -0.485D+00 0.149D+01
 Gap=     0.241 Goal=   None    Shift=    0.000
 RMSDP=7.58D-04 MaxDP=2.44D-02 DE=-4.14D-02 OVMax= 2.04D-01

 Cycle   3  Pass 1  IDiag  1:
 E= -169.921039698361     Delta-E=       -0.063600982438 Rises=F Damp=F
 DIIS: error= 9.37D-03 at cycle   3 NSaved=   3.
 NSaved= 3 IEnMin= 3 EnMin= -169.921039698361     IErMin= 3 ErrMin= 9.37D-03
 ErrMax= 9.37D-03  0.00D+00 EMaxC= 1.00D-01 BMatC= 9.32D-03 BMatP= 2.77D-02
 IDIUse=3 WtCom= 9.06D-01 WtEn= 9.37D-02
 Coeff-Com: -0.321D+00 0.849D+00 0.472D+00
 Coeff-En:   0.000D+00 0.000D+00 0.100D+01
 Coeff:     -0.291D+00 0.769D+00 0.522D+00
 Gap=     0.249 Goal=   None    Shift=    0.000
 RMSDP=4.67D-04 MaxDP=1.48D-02 DE=-6.36D-02 OVMax= 6.17D-02

 Cycle   4  Pass 1  IDiag  1:
 E= -169.926682754715     Delta-E=       -0.005643056354 Rises=F Damp=F
 DIIS: error= 6.04D-03 at cycle   4 NSaved=   4.
 NSaved= 4 IEnMin= 4 EnMin= -169.926682754715     IErMin= 4 ErrMin= 6.04D-03
 ErrMax= 6.04D-03  0.00D+00 EMaxC= 1.00D-01 BMatC= 2.99D-03 BMatP= 9.32D-03
 IDIUse=3 WtCom= 9.40D-01 WtEn= 6.04D-02
 Coeff-Com: -0.674D-01 0.161D+00 0.359D+00 0.547D+00
 Coeff-En:   0.000D+00 0.000D+00 0.266D+00 0.734D+00
 Coeff:     -0.634D-01 0.152D+00 0.353D+00 0.559D+00
 Gap=     0.252 Goal=   None    Shift=    0.000
 RMSDP=1.72D-04 MaxDP=6.88D-03 DE=-5.64D-03 OVMax= 1.91D-02

 Cycle   5  Pass 1  IDiag  1:
 E= -169.928856102256     Delta-E=       -0.002173347541 Rises=F Damp=F
 DIIS: error= 9.42D-04 at cycle   5 NSaved=   5.
 NSaved= 5 IEnMin= 5 EnMin= -169.928856102256     IErMin= 5 ErrMin= 9.42D-04
 ErrMax= 9.42D-04  0.00D+00 EMaxC= 1.00D-01 BMatC= 1.02D-04 BMatP= 2.99D-03
 IDIUse=3 WtCom= 9.91D-01 WtEn= 9.42D-03
 Coeff-Com: -0.667D-02 0.139D-01 0.150D+00 0.286D+00 0.557D+00
 Coeff-En:   0.000D+00 0.000D+00 0.000D+00 0.000D+00 0.100D+01
 Coeff:     -0.661D-02 0.138D-01 0.149D+00 0.284D+00 0.561D+00
 Gap=     0.250 Goal=   None    Shift=    0.000
 RMSDP=4.10D-05 MaxDP=1.88D-03 DE=-2.17D-03 OVMax= 3.29D-03

 Cycle   6  Pass 1  IDiag  1:
 E= -169.928935411911     Delta-E=       -0.000079309655 Rises=F Damp=F
 DIIS: error= 2.42D-04 at cycle   6 NSaved=   6.
 NSaved= 6 IEnMin= 6 EnMin= -169.928935411911     IErMin= 6 ErrMin= 2.42D-04
 ErrMax= 2.42D-04  0.00D+00 EMaxC= 1.00D-01 BMatC= 6.09D-06 BMatP= 1.02D-04
 IDIUse=3 WtCom= 9.98D-01 WtEn= 2.42D-03
 Coeff-Com:  0.292D-02-0.608D-02 0.406D-01 0.811D-01 0.257D+00 0.625D+00
 Coeff-En:   0.000D+00 0.000D+00 0.000D+00 0.000D+00 0.000D+00 0.100D+01
 Coeff:      0.291D-02-0.607D-02 0.405D-01 0.809D-01 0.256D+00 0.626D+00
 Gap=     0.251 Goal=   None    Shift=    0.000
 RMSDP=1.03D-05 MaxDP=3.48D-04 DE=-7.93D-05 OVMax= 5.84D-04

 Cycle   7  Pass 1  IDiag  1:
 E= -169.928940431896     Delta-E=       -0.000005019985 Rises=F Damp=F
 DIIS: error= 2.52D-05 at cycle   7 NSaved=   7.
 NSaved= 7 IEnMin= 7 EnMin= -169.928940431896     IErMin= 7 ErrMin= 2.52D-05
 ErrMax= 2.52D-05  0.00D+00 EMaxC= 1.00D-01 BMatC= 9.31D-08 BMatP= 6.09D-06
 IDIUse=1 WtCom= 1.00D+00 WtEn= 0.00D+00
 Coeff-Com:  0.151D-02-0.247D-02 0.325D-02 0.543D-02 0.306D-01 0.103D+00
 Coeff-Com:  0.859D+00
 Coeff:      0.151D-02-0.247D-02 0.325D-02 0.543D-02 0.306D-01 0.103D+00
 Coeff:      0.859D+00
 Gap=     0.251 Goal=   None    Shift=    0.000
 RMSDP=2.09D-06 MaxDP=5.33D-05 DE=-5.02D-06 OVMax= 1.45D-04

 Cycle   8  Pass 1  IDiag  1:
 E= -169.928940516773     Delta-E=       -0.000000084877 Rises=F Damp=F
 DIIS: error= 4.68D-06 at cycle   8 NSaved=   8.
 NSaved= 8 IEnMin= 8 EnMin= -169.928940516773     IErMin= 8 ErrMin= 4.68D-06
 ErrMax= 4.68D-06  0.00D+00 EMaxC= 1.00D-01 BMatC= 3.53D-09 BMatP= 9.31D-08
 IDIUse=1 WtCom= 1.00D+00 WtEn= 0.00D+00
 Coeff-Com:  0.211D-03-0.294D-03-0.644D-03-0.178D-02-0.433D-02-0.111D-01
 Coeff-Com:  0.167D+00 0.851D+00
 Coeff:      0.211D-03-0.294D-03-0.644D-03-0.178D-02-0.433D-02-0.111D-01
 Coeff:      0.167D+00 0.851D+00
 Gap=     0.251 Goal=   None    Shift=    0.000
 RMSDP=3.52D-07 MaxDP=9.24D-06 DE=-8.49D-08 OVMax= 2.82D-05

 Cycle   9  Pass 1  IDiag  1:
 E= -169.928940520169     Delta-E=       -0.000000003396 Rises=F Damp=F
 DIIS: error= 7.23D-07 at cycle   9 NSaved=   9.
 NSaved= 9 IEnMin= 9 EnMin= -169.928940520169     IErMin= 9 ErrMin= 7.23D-07
 ErrMax= 7.23D-07  0.00D+00 EMaxC= 1.00D-01 BMatC= 8.92D-11 BMatP= 3.53D-09
 IDIUse=1 WtCom= 1.00D+00 WtEn= 0.00D+00
 Coeff-Com: -0.313D-04 0.417D-04-0.766D-04-0.281D-03-0.133D-02-0.391D-02
 Coeff-Com: -0.849D-02 0.102D+00 0.912D+00
 Coeff:     -0.313D-04 0.417D-04-0.766D-04-0.281D-03-0.133D-02-0.391D-02
 Coeff:     -0.849D-02 0.102D+00 0.912D+00
 Gap=     0.251 Goal=   None    Shift=    0.000
 RMSDP=6.22D-08 MaxDP=2.22D-06 DE=-3.40D-09 OVMax= 3.73D-06

 Cycle  10  Pass 1  IDiag  1:
 E= -169.928940520254     Delta-E=       -0.000000000085 Rises=F Damp=F
 DIIS: error= 1.48D-07 at cycle  10 NSaved=  10.
 NSaved=10 IEnMin=10 EnMin= -169.928940520254     IErMin=10 ErrMin= 1.48D-07
 ErrMax= 1.48D-07  0.00D+00 EMaxC= 1.00D-01 BMatC= 3.33D-12 BMatP= 8.92D-11
 IDIUse=1 WtCom= 1.00D+00 WtEn= 0.00D+00
 Coeff-Com: -0.168D-05 0.234D-05 0.882D-05-0.862D-05-0.959D-04-0.243D-03
 Coeff-Com: -0.314D-02-0.477D-02 0.549D-01 0.953D+00
 Coeff:     -0.168D-05 0.234D-05 0.882D-05-0.862D-05-0.959D-04-0.243D-03
 Coeff:     -0.314D-02-0.477D-02 0.549D-01 0.953D+00
 Gap=     0.251 Goal=   None    Shift=    0.000
 RMSDP=1.01D-08 MaxDP=3.02D-07 DE=-8.51D-11 OVMax= 6.07D-07

 Cycle  11  Pass 1  IDiag  1:
 E= -169.928940520257     Delta-E=       -0.000000000003 Rises=F Damp=F
 DIIS: error= 2.69D-08 at cycle  11 NSaved=  11.
 NSaved=11 IEnMin=11 EnMin= -169.928940520257     IErMin=11 ErrMin= 2.69D-08
 ErrMax= 2.69D-08  0.00D+00 EMaxC= 1.00D-01 BMatC= 1.43D-13 BMatP= 3.33D-12
 IDIUse=1 WtCom= 1.00D+00 WtEn= 0.00D+00
 Coeff-Com:  0.107D-05-0.130D-05 0.452D-05 0.376D-05 0.130D-04 0.206D-04
 Coeff-Com: -0.549D-03-0.365D-02-0.139D-01 0.208D+00 0.810D+00
 Coeff:      0.107D-05-0.130D-05 0.452D-05 0.376D-05 0.130D-04 0.206D-04
 Coeff:     -0.549D-03-0.365D-02-0.139D-01 0.208D+00 0.810D+00
 Gap=     0.251 Goal=   None    Shift=    0.000
 RMSDP=1.73D-09 MaxDP=3.29D-08 DE=-2.90D-12 OVMax= 1.33D-07

 SCF Done:  E(RB3LYP) =  -169.928940520     A.U. after   11 cycles
            NFock= 11  Conv=0.17D-08     -V/T= 2.0047
 KE= 1.691319172900D+02 PE=-5.396156575258D+02 EE= 1.300002841865D+02
 Leave Link  502 at Tue Jan 26 00:24:55 2021, MaxMem=  6291456000 cpu:              39.2 elap:               2.6
 (Enter /home/orgChemistry/bin/gaussian16-C.01/g16/l601.exe)
 Copying SCF densities to generalized density rwf, IOpCl= 0 IROHF=0.

 **********************************************************************

            Population analysis using the SCF Density.

 **********************************************************************

 Orbital symmetries:
       Occupied  (A') (A') (A') (A') (A') (A') (A') (A') (A") (A')
                 (A") (A')
       Virtual   (A') (A") (A') (A') (A") (A') (A') (A') (A') (A')
                 (A') (A") (A") (A') (A') (A') (A') (A') (A') (A')
                 (A") (A') (A") (A") (A') (A') (A') (A') (A") (A')
                 (A") (A') (A') (A") (A') (A') (A') (A') (A") (A')
                 (A') (A') (A') (A") (A') (A") (A') (A") (A') (A")
                 (A') (A') (A") (A') (A') (A') (A') (A") (A') (A')
                 (A") (A') (A') (A") (A') (A") (A') (A') (A") (A')
                 (A') (A') (A') (A") (A") (A') (A') (A") (A') (A")
                 (A') (A') (A') (A") (A') (A') (A") (A') (A') (A")
                 (A") (A') (A") (A') (A') (A") (A') (A') (A") (A')
                 (A") (A') (A") (A') (A') (A') (A") (A') (A") (A')
                 (A') (A') (A') (A") (A') (A') (A") (A') (A") (A")
                 (A') (A') (A") (A') (A') (A') (A") (A") (A') (A')
                 (A') (A') (A") (A") (A') (A') (A') (A") (A") (A")
                 (A') (A') (A') (A') (A') (A') (A") (A') (A") (A')
                 (A') (A") (A') (A") (A') (A') (A') (A') (A')
 The electronic state is 1-A'.
 Alpha  occ. eigenvalues --  -19.17274 -14.29785 -10.28447  -1.08553  -0.88258
 Alpha  occ. eigenvalues --   -0.67419  -0.56411  -0.48871  -0.42730  -0.40403
 Alpha  occ. eigenvalues --   -0.28883  -0.27243
 Alpha virt. eigenvalues --   -0.02176  -0.01090   0.01213   0.02044   0.06072
 Alpha virt. eigenvalues --    0.07398   0.07423   0.09630   0.12593   0.13893
 Alpha virt. eigenvalues --    0.15602   0.15921   0.19334   0.19370   0.19724
 Alpha virt. eigenvalues --    0.20970   0.24100   0.25626   0.26915   0.32208
 Alpha virt. eigenvalues --    0.32520   0.36617   0.37453   0.39203   0.40765
 Alpha virt. eigenvalues --    0.43079   0.44719   0.49701   0.52044   0.53507
 Alpha virt. eigenvalues --    0.55445   0.57043   0.61946   0.63949   0.64907
 Alpha virt. eigenvalues --    0.66945   0.70609   0.73177   0.75737   0.76107
 Alpha virt. eigenvalues --    0.77544   0.79995   0.83650   0.86146   0.95115
 Alpha virt. eigenvalues --    0.95753   0.97776   1.01097   1.04477   1.07077
 Alpha virt. eigenvalues --    1.08029   1.14754   1.19208   1.21267   1.26769
 Alpha virt. eigenvalues --    1.35917   1.39026   1.47809   1.59963   1.60351
 Alpha virt. eigenvalues --    1.76000   1.76796   1.80343   1.82316   1.89610
 Alpha virt. eigenvalues --    1.93679   1.95782   2.05880   2.05896   2.11170
 Alpha virt. eigenvalues --    2.22051   2.30949   2.37992   2.45744   2.49993
 Alpha virt. eigenvalues --    2.52247   2.61710   2.69400   2.71855   2.79886
 Alpha virt. eigenvalues --    2.81148   2.91898   2.93392   2.98190   3.01101
 Alpha virt. eigenvalues --    3.05630   3.10461   3.11776   3.14139   3.15794
 Alpha virt. eigenvalues --    3.18495   3.25729   3.30045   3.33227   3.40210
 Alpha virt. eigenvalues --    3.48231   3.51556   3.56720   3.67410   3.78405
 Alpha virt. eigenvalues --    3.82796   3.90667   3.93957   4.03469   4.06123
 Alpha virt. eigenvalues --    4.12783   4.15455   4.26092   4.29723   4.34186
 Alpha virt. eigenvalues --    4.43848   4.49517   4.63575   4.65739   4.77734
 Alpha virt. eigenvalues --    4.87412   4.93382   5.14586   5.14933   5.25131
 Alpha virt. eigenvalues --    5.32028   5.33673   5.40871   5.49561   5.64517
 Alpha virt. eigenvalues --    5.81444   5.92736   6.35458   6.36921   6.48380
 Alpha virt. eigenvalues --    6.70798   7.14450   7.18688   7.31921   7.40633
 Alpha virt. eigenvalues --    7.84698   8.03088   8.27707   8.31435   8.36501
 Alpha virt. eigenvalues --    8.40465   8.53518   8.59276   9.16992   9.49097
 Alpha virt. eigenvalues --    9.59720  10.36789  10.44575  10.72509  11.14387
 Alpha virt. eigenvalues --   11.40235  14.39231  14.49447  14.63438  15.08590
 Alpha virt. eigenvalues --   15.27088  25.59885  36.81844  50.51550
          Condensed to atoms (all electrons):
               1          2          3          4          5          6
     1  C    4.411404   0.236553   0.072806   0.451073  -0.022792  -0.000598
     2  N    0.236553   7.707815  -0.110193  -0.120781   0.192184  -0.011722
     3  O    0.072806  -0.110193   8.668902  -0.057647  -0.030360   0.173037
     4  H    0.451073  -0.120781  -0.057647   0.675275   0.013619   0.006242
     5  H   -0.022792   0.192184  -0.030360   0.013619   0.574683   0.010995
     6  H   -0.000598  -0.011722   0.173037   0.006242   0.010995   0.357087
 Mulliken charges:
               1
     1  C    0.851554
     2  N   -0.893856
     3  O   -0.716546
     4  H    0.032219
     5  H    0.261671
     6  H    0.464958
 Sum of Mulliken charges =  -0.00000
 Mulliken charges with hydrogens summed into heavy atoms:
               1
     1  C    0.883773
     2  N   -0.632185
     3  O   -0.251588
 Electronic spatial extent (au):  <R**2>=            146.3382
 Charge=             -0.0000 electrons
 Dipole moment (field-independent basis, Debye):
    X=             -1.2526    Y=             -1.5748    Z=             -0.0000  Tot=              2.0123
 Quadrupole moment (field-independent basis, Debye-Ang):
   XX=            -23.4176   YY=            -12.3000   ZZ=            -19.3056
   XY=             -1.2746   XZ=             -0.0000   YZ=              0.0000
 Traceless Quadrupole moment (field-independent basis, Debye-Ang):
   XX=             -5.0765   YY=              6.0410   ZZ=             -0.9645
   XY=             -1.2746   XZ=             -0.0000   YZ=              0.0000
 Octapole moment (field-independent basis, Debye-Ang**2):
  XXX=             -7.3241  YYY=             -4.9597  ZZZ=             -0.0000  XYY=             -3.7791
  XXY=             -6.8359  XXZ=             -0.0000  XZZ=             -2.0055  YZZ=             -0.9010
  YYZ=             -0.0000  XYZ=             -0.0000
 Hexadecapole moment (field-independent basis, Debye-Ang**3):
 XXXX=           -137.9515 YYYY=            -32.7743 ZZZZ=            -19.5395 XXXY=            -11.6347
 XXXZ=             -0.0000 YYYX=             -3.7398 YYYZ=             -0.0000 ZZZX=             -0.0000
 ZZZY=             -0.0000 XXYY=            -22.7455 XXZZ=            -25.4067 YYZZ=            -11.2917
 XXYZ=             -0.0000 YYXZ=             -0.0000 ZZXY=             -2.4676
 N-N= 7.055451552906D+01 E-N=-5.396156579408D+02  KE= 1.691319172900D+02
 Symmetry A'   KE= 1.618092048181D+02
 Symmetry A"   KE= 7.322712471914D+00
 No NMR shielding tensors so no spin-rotation constants.
 Leave Link  601 at Tue Jan 26 00:24:59 2021, MaxMem=  6291456000 cpu:              11.3 elap:               0.6
 (Enter /home/orgChemistry/bin/gaussian16-C.01/g16/l701.exe)
 ... and contract with generalized density number  0.
 Compute integral first derivatives.
 Leave Link  701 at Tue Jan 26 00:25:02 2021, MaxMem=  6291456000 cpu:               6.4 elap:               0.5
 (Enter /home/orgChemistry/bin/gaussian16-C.01/g16/l702.exe)
 L702 exits ... SP integral derivatives will be done elsewhere.
 Leave Link  702 at Tue Jan 26 00:25:04 2021, MaxMem=  6291456000 cpu:               1.7 elap:               0.2
 (Enter /home/orgChemistry/bin/gaussian16-C.01/g16/l703.exe)
 Integral derivatives from FoFJK, PRISM(SPDF).
 Compute integral first derivatives, UseDBF=F ICtDFT=           0.
 Calling FoFJK, ICntrl=      2127 FMM=F ISym2X=1 I1Cent= 0 IOpClX= 0 NMat=1 NMatS=1 NMatT=0.
 FoFJK:  IHMeth= 1 ICntrl=    2127 DoSepK=F KAlg= 0 I1Cent=           0 FoldK=F
 IRaf=         0 NMat=       1 IRICut=       1 DoRegI=T DoRafI=F ISym2E= 1 IDoP0=0 IntGTp=1.
 FoFCou: FMM=F IPFlag=           0 FMFlag=      100000 FMFlg1=         800
         NFxFlg=           0 DoJE=F BraDBF=F KetDBF=F FulRan=T
         wScrn=  0.000000 ICntrl=      2127 IOpCl=  0 I1Cent=           0 NGrid=           0
         NMat0=    1 NMatS0=      1 NMatT0=    0 NMatD0=    1 NMtDS0=    0 NMtDT0=    0
 Petite list used in FoFCou.
 Leave Link  703 at Tue Jan 26 00:25:08 2021, MaxMem=  6291456000 cpu:              25.3 elap:               1.2
 (Enter /home/orgChemistry/bin/gaussian16-C.01/g16/l716.exe)
 Dipole        =-4.92824529D-01-6.19589846D-01-2.43431693D-17
 ***** Axes restored to original set *****
 -------------------------------------------------------------------
 Center     Atomic                   Forces (Hartrees/Bohr)
 Number     Number              X              Y              Z
 -------------------------------------------------------------------
      1        6           0.090630455    0.013059625   -0.001972216
      2        7          -0.023611718   -0.019009337    0.000214861
      3        8          -0.048369587    0.012018470    0.001416302
      4        1          -0.004633859    0.011642857    0.000336650
      5        1          -0.018797805    0.003113434    0.000520585
      6        1           0.004782514   -0.020825049   -0.000516182
 -------------------------------------------------------------------
 Cartesian Forces:  Max     0.090630455 RMS     0.026636013
 Leave Link  716 at Tue Jan 26 00:25:11 2021, MaxMem=  6291456000 cpu:               1.0 elap:               0.2
 (Enter /home/orgChemistry/bin/gaussian16-C.01/g16/l103.exe)

 GradGradGradGradGradGradGradGradGradGradGradGradGradGradGradGradGradGrad
 Berny optimization.
 FormGI is forming the generalized inverse of G from B-inverse, IUseBI=4.
 Internal  Forces:  Max     0.043563257 RMS     0.021318563
 Search for a local minimum.
 Step number   1 out of a maximum of   24
 All quantities printed in internal units (Hartrees-Bohrs-Radians)
 RMS Force = .21319D-01 SwitMx=.10000D-02 MixMth= 1
 Mixed Optimization -- RFO/linear search
 Second derivative matrix not updated -- first step.
 The second derivative matrix:
                          R1        R2        R3        R4        R5
           R1           0.71680
           R2           0.00000   0.54770
           R3           0.00000   0.00000   0.35474
           R4           0.00000   0.00000   0.00000   0.42695
           R5           0.00000   0.00000   0.00000   0.00000   0.53826
           A1           0.00000   0.00000   0.00000   0.00000   0.00000
           A2           0.00000   0.00000   0.00000   0.00000   0.00000
           A3           0.00000   0.00000   0.00000   0.00000   0.00000
           A4           0.00000   0.00000   0.00000   0.00000   0.00000
           A5           0.00000   0.00000   0.00000   0.00000   0.00000
           D1           0.00000   0.00000   0.00000   0.00000   0.00000
           D2           0.00000   0.00000   0.00000   0.00000   0.00000
           D3           0.00000   0.00000   0.00000   0.00000   0.00000
           D4           0.00000   0.00000   0.00000   0.00000   0.00000
                          A1        A2        A3        A4        A5
           A1           0.25000
           A2           0.00000   0.16000
           A3           0.00000   0.00000   0.16000
           A4           0.00000   0.00000   0.00000   0.16000
           A5           0.00000   0.00000   0.00000   0.00000   0.16000
           D1           0.00000   0.00000   0.00000   0.00000   0.00000
           D2           0.00000   0.00000   0.00000   0.00000   0.00000
           D3           0.00000   0.00000   0.00000   0.00000   0.00000
           D4           0.00000   0.00000   0.00000   0.00000   0.00000
                          D1        D2        D3        D4
           D1           0.03219
           D2           0.00000   0.03219
           D3           0.00000   0.00000   0.02337
           D4           0.00000   0.00000   0.00000   0.02337
 ITU=  0
     Eigenvalues ---    0.02337   0.02779   0.03219   0.16000   0.16000
     Eigenvalues ---    0.16000   0.22000   0.35474   0.42695   0.53826
     Eigenvalues ---    0.54770   0.71680
 RFO step:  Lambda=-2.54577615D-02 EMin= 2.33749288D-02
 Linear search not attempted -- first point.
 Maximum step size (   0.300) exceeded in Quadratic search.
    -- Step size scaled by   0.887
 Iteration  1 RMS(Cart)=  0.07266295 RMS(Int)=  0.00370753
 Iteration  2 RMS(Cart)=  0.00465575 RMS(Int)=  0.00000093
 Iteration  3 RMS(Cart)=  0.00000102 RMS(Int)=  0.00000001
 Iteration  4 RMS(Cart)=  0.00000000 RMS(Int)=  0.00000000
 ITry= 1 IFail=0 DXMaxC= 1.32D-01 DCOld= 1.00D+10 DXMaxT= 3.00D-01 DXLimC= 3.00D+00 Rises=F
 ClnCor:  largest displacement from symmetrization is 1.38D-08 for atom     2.
 Variable       Old X    -DE/DX   Delta X   Delta X   Delta X     New X
                                 (Linear)    (Quad)   (Total)
    R1        2.42741  -0.03182   0.00000  -0.03802  -0.03802   2.38938
    R2        2.55337  -0.00397   0.00000  -0.00615  -0.00615   2.54722
    R3        2.04913  -0.00302   0.00000  -0.00705  -0.00705   2.04207
    R4        1.94748  -0.01391   0.00000  -0.02728  -0.02728   1.92021
    R5        1.82891  -0.00918   0.00000  -0.01444  -0.01444   1.81447
    A1        2.11399   0.04356   0.00000   0.15742   0.15742   2.27141
    A2        2.08552  -0.00932   0.00000  -0.01910  -0.01910   2.06642
    A3        2.08368  -0.03425   0.00000  -0.13832  -0.13832   1.94536
    A4        2.11970  -0.02538   0.00000  -0.12136  -0.12136   1.99834
    A5        2.13094  -0.03530   0.00000  -0.16884  -0.16884   1.96210
    D1        0.00000  -0.00000   0.00000  -0.00000  -0.00000   0.00000
    D2        3.14159   0.00000   0.00000   0.00000   0.00000   3.14159
    D3       -0.00000   0.00000   0.00000   0.00000   0.00000   0.00000
    D4        3.14159   0.00000   0.00000  -0.00000   0.00000   3.14159
         Item               Value     Threshold  Converged?
 Maximum Force            0.043563     0.000450     NO 
 RMS     Force            0.021319     0.000300     NO 
 Maximum Displacement     0.132349     0.001800     NO 
 RMS     Displacement     0.074145     0.001200     NO 
 Predicted change in Energy=-1.371187D-02
 Lowest energy point so far.  Saving SCF results.
 GradGradGradGradGradGradGradGradGradGradGradGradGradGradGradGradGradGrad

 Leave Link  103 at Tue Jan 26 00:25:11 2021, MaxMem=  6291456000 cpu:               2.7 elap:               0.2
 (Enter /home/orgChemistry/bin/gaussian16-C.01/g16/l202.exe)
                          Input orientation:                          
 ---------------------------------------------------------------------
 Center     Atomic      Atomic             Coordinates (Angstroms)
 Number     Number       Type             X           Y           Z
 ---------------------------------------------------------------------
      1          6           0       -2.386578    0.841516    0.002173
      2          7           0       -1.276892    0.236688   -0.036624
      3          8           0       -2.655965    2.161869    0.034070
      4          1           0       -3.292665    0.252768    0.013114
      5          1           0       -0.464480    0.846966   -0.044855
      6          1           0       -1.859732    2.698397    0.024823
 ---------------------------------------------------------------------
                    Distance matrix (angstroms):
                    1          2          3          4          5
     1  C    0.000000
     2  N    1.264408   0.000000
     3  O    1.347931   2.369212   0.000000
     4  H    1.080619   2.016451   2.012584   0.000000
     5  H    1.922681   1.016130   2.556914   2.890513   0.000000
     6  H    1.930307   2.530512   0.960175   2.834526   2.319349
                    6
     6  H    0.000000
 Stoichiometry    CH3NO
 Framework group  CS[SG(CH3NO)]
 Deg. of freedom     9
 Full point group                 CS      NOp   2
 RotChk:  IX=0 Diff= 7.75D-02
 Largest Abelian subgroup         CS      NOp   2
 Largest concise Abelian subgroup C1      NOp   1
                         Standard orientation:                         
 ---------------------------------------------------------------------
 Center     Atomic      Atomic             Coordinates (Angstroms)
 Number     Number       Type             X           Y           Z
 ---------------------------------------------------------------------
      1          6           0        0.000000    0.435018   -0.000000
      2          7           0        1.223185    0.114790   -0.000000
      3          8           0       -1.101629   -0.341727    0.000000
      4          1           0       -0.256416    1.484775   -0.000000
      5          1           0        1.396591   -0.886434   -0.000000
      6          1           0       -0.889438   -1.278162    0.000000
 ---------------------------------------------------------------------
 Rotational constants (GHZ):          68.3004924          11.2897835           9.6883415
 Leave Link  202 at Tue Jan 26 00:25:11 2021, MaxMem=  6291456000 cpu:               1.3 elap:               0.1
 (Enter /home/orgChemistry/bin/gaussian16-C.01/g16/l301.exe)
 Standard basis: 6-311++G(3df,3pd) (5D, 7F)
 Ernie: Thresh=  0.10000D-02 Tol=  0.10000D-05 Strict=F.
 There are   135 symmetry adapted cartesian basis functions of A'  symmetry.
 There are    57 symmetry adapted cartesian basis functions of A"  symmetry.
 There are   117 symmetry adapted basis functions of A'  symmetry.
 There are    54 symmetry adapted basis functions of A"  symmetry.
   171 basis functions,   237 primitive gaussians,   192 cartesian basis functions
    12 alpha electrons       12 beta electrons
       nuclear repulsion energy        70.8765080585 Hartrees.
 IExCor=  402 DFT=T Ex+Corr=B3LYP ExCW=0 ScaHFX=  0.200000
 ScaDFX=  0.800000  0.720000  1.000000  0.810000 ScalE2=  1.000000  1.000000
 IRadAn=      5 IRanWt=     -1 IRanGd=            0 ICorTp=0 IEmpDi=  4
 NAtoms=    6 NActive=    6 NUniq=    6 SFac= 1.00D+00 NAtFMM=   60 NAOKFM=F Big=F
 Integral buffers will be    131072 words long.
 Raffenetti 2 integral format.
 Two-electron integral symmetry is turned on.
 Leave Link  301 at Tue Jan 26 00:25:11 2021, MaxMem=  6291456000 cpu:               1.3 elap:               0.1
 (Enter /home/orgChemistry/bin/gaussian16-C.01/g16/l302.exe)
 NPDir=0 NMtPBC=     1 NCelOv=     1 NCel=       1 NClECP=     1 NCelD=      1
         NCelK=      1 NCelE2=     1 NClLst=     1 CellRange=     0.0.
 One-electron integrals computed using PRISM.
 One-electron integral symmetry used in STVInt
 NBasis=   171 RedAO= T EigKep=  2.24D-04  NBF=   117    54
 NBsUse=   171 1.00D-06 EigRej= -1.00D+00 NBFU=   117    54
 Precomputing XC quadrature grid using
 IXCGrd= 4 IRadAn=           5 IRanWt=          -1 IRanGd=           0 AccXCQ= 0.00D+00.
 Generated NRdTot=       0 NPtTot=           0 NUsed=           0 NTot=          32
 NSgBfM=   192   192   192   192   192 MxSgAt=     6 MxSgA2=     6.
 Leave Link  302 at Tue Jan 26 00:25:12 2021, MaxMem=  6291456000 cpu:               8.7 elap:               0.4
 (Enter /home/orgChemistry/bin/gaussian16-C.01/g16/l303.exe)
 DipDrv:  MaxL=1.
 Leave Link  303 at Tue Jan 26 00:25:12 2021, MaxMem=  6291456000 cpu:               0.7 elap:               0.1
 (Enter /home/orgChemistry/bin/gaussian16-C.01/g16/l401.exe)
 Initial guess from the checkpoint file:  "file_name.chk"
 B after Tr=     0.000000   -0.000000   -0.000000
         Rot=    0.999754   -0.000000   -0.000000   -0.022184 Ang=  -2.54 deg.
 Guess basis will be translated and rotated to current coordinates.
 JPrj=2 DoOrth=T DoCkMO=T.
 Initial guess orbital symmetries:
       Occupied  (A') (A') (A') (A') (A') (A') (A') (A') (A") (A')
                 (A") (A')
       Virtual   (A') (A") (A') (A') (A") (A') (A') (A') (A') (A')
                 (A') (A") (A") (A') (A') (A') (A') (A') (A') (A')
                 (A") (A') (A") (A") (A') (A') (A') (A') (A") (A')
                 (A") (A') (A') (A") (A') (A') (A') (A') (A") (A')
                 (A') (A') (A') (A") (A') (A") (A') (A") (A') (A")
                 (A') (A') (A") (A') (A') (A') (A') (A") (A') (A')
                 (A") (A') (A') (A") (A') (A") (A') (A') (A") (A')
                 (A') (A') (A') (A") (A") (A') (A') (A") (A') (A")
                 (A') (A') (A') (A") (A') (A') (A") (A') (A') (A")
                 (A") (A') (A") (A') (A') (A") (A') (A') (A") (A')
                 (A") (A') (A") (A') (A') (A') (A") (A') (A") (A')
                 (A') (A') (A') (A") (A') (A') (A") (A') (A") (A")
                 (A') (A') (A") (A') (A') (A') (A") (A") (A') (A')
                 (A') (A') (A") (A") (A') (A') (A') (A") (A") (A")
                 (A') (A') (A') (A') (A') (A') (A") (A') (A") (A')
                 (A') (A") (A') (A") (A') (A') (A') (A') (A')
 The electronic state of the initial guess is 1-A'.
 Generating alternative initial guess.
 ExpMin= 3.60D-02 ExpMax= 8.59D+03 ExpMxC= 1.30D+03 IAcc=3 IRadAn=         5 AccDes= 0.00D+00
 Harris functional with IExCor=  402 and IRadAn=       5 diagonalized for initial guess.
 HarFok:  IExCor=  402 AccDes= 0.00D+00 IRadAn=         5 IDoV= 1 UseB2=F ITyADJ=14
 ICtDFT=  3500011 ScaDFX=  1.000000  1.000000  1.000000  1.000000
 FoFCou: FMM=F IPFlag=           0 FMFlag=      100000 FMFlg1=           0
         NFxFlg=           0 DoJE=T BraDBF=F KetDBF=T FulRan=T
         wScrn=  0.000000 ICntrl=       500 IOpCl=  0 I1Cent=   200000004 NGrid=           0
         NMat0=    1 NMatS0=      1 NMatT0=    0 NMatD0=    1 NMtDS0=    0 NMtDT0=    0
 Petite list used in FoFCou.
 Harris En= -169.959981004947    
 Leave Link  401 at Tue Jan 26 00:25:13 2021, MaxMem=  6291456000 cpu:              14.3 elap:               0.7
 (Enter /home/orgChemistry/bin/gaussian16-C.01/g16/l502.exe)
 Keep R1 ints in memory in symmetry-blocked form, NReq=163318983.
 FoFCou: FMM=F IPFlag=           0 FMFlag=           0 FMFlg1=           0
         NFxFlg=           0 DoJE=F BraDBF=F KetDBF=F FulRan=T
         wScrn=  0.000000 ICntrl=       600 IOpCl=  0 I1Cent=           0 NGrid=           0
         NMat0=    1 NMatS0=  14706 NMatT0=    0 NMatD0=    1 NMtDS0=    0 NMtDT0=    0
 Petite list used in FoFCou.
 Closed shell SCF:
 Using DIIS extrapolation, IDIIS=  1040.
 NGot=  6291456000 LenX=  6236198572 LenY=  6236161267
 Requested convergence on RMS density matrix=1.00D-08 within 128 cycles.
 Requested convergence on MAX density matrix=1.00D-06.
 Requested convergence on             energy=1.00D-06.
 No special actions if energy rises.

 Cycle   1  Pass 1  IDiag  1:
 E= -169.935962799774    
 DIIS: error= 8.07D-03 at cycle   1 NSaved=   1.
 NSaved= 1 IEnMin= 1 EnMin= -169.935962799774     IErMin= 1 ErrMin= 8.07D-03
 ErrMax= 8.07D-03  0.00D+00 EMaxC= 1.00D-01 BMatC= 7.49D-03 BMatP= 7.49D-03
 IDIUse=3 WtCom= 9.19D-01 WtEn= 8.07D-02
 Coeff-Com:  0.100D+01
 Coeff-En:   0.100D+01
 Coeff:      0.100D+01
 Gap=     0.316 Goal=   None    Shift=    0.000
 GapD=    0.316 DampG=1.000 DampE=1.000 DampFc=1.0000 IDamp=-1.
 RMSDP=8.52D-04 MaxDP=4.18D-02              OVMax= 2.69D-02

 Cycle   2  Pass 1  IDiag  1:
 E= -169.940796341865     Delta-E=       -0.004833542091 Rises=F Damp=F
 DIIS: error= 2.27D-03 at cycle   2 NSaved=   2.
 NSaved= 2 IEnMin= 2 EnMin= -169.940796341865     IErMin= 2 ErrMin= 2.27D-03
 ErrMax= 2.27D-03  0.00D+00 EMaxC= 1.00D-01 BMatC= 6.32D-04 BMatP= 7.49D-03
 IDIUse=3 WtCom= 9.77D-01 WtEn= 2.27D-02
 Coeff-Com:  0.934D-01 0.907D+00
 Coeff-En:   0.000D+00 0.100D+01
 Coeff:      0.913D-01 0.909D+00
 Gap=     0.262 Goal=   None    Shift=    0.000
 RMSDP=2.07D-04 MaxDP=9.63D-03 DE=-4.83D-03 OVMax= 2.15D-02

 Cycle   3  Pass 1  IDiag  1:
 E= -169.940169154660     Delta-E=        0.000627187205 Rises=F Damp=F
 DIIS: error= 2.98D-03 at cycle   3 NSaved=   3.
 NSaved= 3 IEnMin= 2 EnMin= -169.940796341865     IErMin= 2 ErrMin= 2.27D-03
 ErrMax= 2.98D-03  0.00D+00 EMaxC= 1.00D-01 BMatC= 1.37D-03 BMatP= 6.32D-04
 IDIUse=3 WtCom= 1.55D-01 WtEn= 8.45D-01
 Coeff-Com: -0.937D-02 0.603D+00 0.406D+00
 Coeff-En:   0.000D+00 0.661D+00 0.339D+00
 Coeff:     -0.145D-02 0.652D+00 0.350D+00
 Gap=     0.270 Goal=   None    Shift=    0.000
 RMSDP=1.12D-04 MaxDP=5.04D-03 DE= 6.27D-04 OVMax= 1.40D-02

 Cycle   4  Pass 1  IDiag  1:
 E= -169.941279477344     Delta-E=       -0.001110322684 Rises=F Damp=F
 DIIS: error= 6.00D-04 at cycle   4 NSaved=   4.
 NSaved= 4 IEnMin= 4 EnMin= -169.941279477344     IErMin= 4 ErrMin= 6.00D-04
 ErrMax= 6.00D-04  0.00D+00 EMaxC= 1.00D-01 BMatC= 4.16D-05 BMatP= 6.32D-04
 IDIUse=3 WtCom= 9.94D-01 WtEn= 6.00D-03
 Coeff-Com: -0.113D-01 0.333D+00 0.183D+00 0.495D+00
 Coeff-En:   0.000D+00 0.000D+00 0.000D+00 0.100D+01
 Coeff:     -0.112D-01 0.331D+00 0.182D+00 0.498D+00
 Gap=     0.271 Goal=   None    Shift=    0.000
 RMSDP=2.36D-05 MaxDP=1.09D-03 DE=-1.11D-03 OVMax= 1.37D-03

 Cycle   5  Pass 1  IDiag  1:
 E= -169.941308813088     Delta-E=       -0.000029335744 Rises=F Damp=F
 DIIS: error= 1.08D-04 at cycle   5 NSaved=   5.
 NSaved= 5 IEnMin= 5 EnMin= -169.941308813088     IErMin= 5 ErrMin= 1.08D-04
 ErrMax= 1.08D-04  0.00D+00 EMaxC= 1.00D-01 BMatC= 1.89D-06 BMatP= 4.16D-05
 IDIUse=3 WtCom= 9.99D-01 WtEn= 1.08D-03
 Coeff-Com: -0.380D-02 0.828D-01 0.408D-01 0.223D+00 0.657D+00
 Coeff-En:   0.000D+00 0.000D+00 0.000D+00 0.000D+00 0.100D+01
 Coeff:     -0.379D-02 0.827D-01 0.408D-01 0.223D+00 0.658D+00
 Gap=     0.271 Goal=   None    Shift=    0.000
 RMSDP=5.65D-06 MaxDP=1.93D-04 DE=-2.93D-05 OVMax= 3.69D-04

 Cycle   6  Pass 1  IDiag  1:
 E= -169.941309848013     Delta-E=       -0.000001034925 Rises=F Damp=F
 DIIS: error= 4.66D-05 at cycle   6 NSaved=   6.
 NSaved= 6 IEnMin= 6 EnMin= -169.941309848013     IErMin= 6 ErrMin= 4.66D-05
 ErrMax= 4.66D-05  0.00D+00 EMaxC= 1.00D-01 BMatC= 3.44D-07 BMatP= 1.89D-06
 IDIUse=1 WtCom= 1.00D+00 WtEn= 0.00D+00
 Coeff-Com: -0.496D-03 0.153D-02-0.102D-02 0.522D-01 0.355D+00 0.593D+00
 Coeff:     -0.496D-03 0.153D-02-0.102D-02 0.522D-01 0.355D+00 0.593D+00
 Gap=     0.271 Goal=   None    Shift=    0.000
 RMSDP=2.38D-06 MaxDP=1.15D-04 DE=-1.03D-06 OVMax= 1.84D-04

 Cycle   7  Pass 1  IDiag  1:
 E= -169.941310108016     Delta-E=       -0.000000260003 Rises=F Damp=F
 DIIS: error= 1.29D-05 at cycle   7 NSaved=   7.
 NSaved= 7 IEnMin= 7 EnMin= -169.941310108016     IErMin= 7 ErrMin= 1.29D-05
 ErrMax= 1.29D-05  0.00D+00 EMaxC= 1.00D-01 BMatC= 1.16D-08 BMatP= 3.44D-07
 IDIUse=1 WtCom= 1.00D+00 WtEn= 0.00D+00
 Coeff-Com:  0.694D-06-0.311D-02-0.189D-02 0.807D-02 0.109D+00 0.247D+00
 Coeff-Com:  0.641D+00
 Coeff:      0.694D-06-0.311D-02-0.189D-02 0.807D-02 0.109D+00 0.247D+00
 Coeff:      0.641D+00
 Gap=     0.271 Goal=   None    Shift=    0.000
 RMSDP=5.13D-07 MaxDP=1.83D-05 DE=-2.60D-07 OVMax= 3.05D-05

 Cycle   8  Pass 1  IDiag  1:
 E= -169.941310118903     Delta-E=       -0.000000010888 Rises=F Damp=F
 DIIS: error= 9.93D-07 at cycle   8 NSaved=   8.
 NSaved= 8 IEnMin= 8 EnMin= -169.941310118903     IErMin= 8 ErrMin= 9.93D-07
 ErrMax= 9.93D-07  0.00D+00 EMaxC= 1.00D-01 BMatC= 1.66D-10 BMatP= 1.16D-08
 IDIUse=1 WtCom= 1.00D+00 WtEn= 0.00D+00
 Coeff-Com:  0.213D-04-0.118D-02-0.501D-03-0.144D-02 0.115D-01 0.332D-01
 Coeff-Com:  0.140D+00 0.818D+00
 Coeff:      0.213D-04-0.118D-02-0.501D-03-0.144D-02 0.115D-01 0.332D-01
 Coeff:      0.140D+00 0.818D+00
 Gap=     0.271 Goal=   None    Shift=    0.000
 RMSDP=6.44D-08 MaxDP=1.51D-06 DE=-1.09D-08 OVMax= 3.12D-06

 Cycle   9  Pass 1  IDiag  1:
 E= -169.941310119028     Delta-E=       -0.000000000125 Rises=F Damp=F
 DIIS: error= 1.36D-07 at cycle   9 NSaved=   9.
 NSaved= 9 IEnMin= 9 EnMin= -169.941310119028     IErMin= 9 ErrMin= 1.36D-07
 ErrMax= 1.36D-07  0.00D+00 EMaxC= 1.00D-01 BMatC= 3.00D-12 BMatP= 1.66D-10
 IDIUse=1 WtCom= 1.00D+00 WtEn= 0.00D+00
 Coeff-Com:  0.350D-05-0.118D-03-0.723D-05-0.480D-03-0.377D-03 0.513D-03
 Coeff-Com:  0.934D-02 0.136D+00 0.856D+00
 Coeff:      0.350D-05-0.118D-03-0.723D-05-0.480D-03-0.377D-03 0.513D-03
 Coeff:      0.934D-02 0.136D+00 0.856D+00
 Gap=     0.271 Goal=   None    Shift=    0.000
 RMSDP=9.62D-09 MaxDP=2.07D-07 DE=-1.25D-10 OVMax= 6.00D-07

 SCF Done:  E(RB3LYP) =  -169.941310119     A.U. after    9 cycles
            NFock=  9  Conv=0.96D-08     -V/T= 2.0038
 KE= 1.692898755796D+02 PE=-5.402675007002D+02 EE= 1.301598069430D+02
 Leave Link  502 at Tue Jan 26 00:25:15 2021, MaxMem=  6291456000 cpu:              33.3 elap:               1.9
 (Enter /home/orgChemistry/bin/gaussian16-C.01/g16/l701.exe)
 ... and contract with generalized density number  0.
 Compute integral first derivatives.
 Leave Link  701 at Tue Jan 26 00:25:15 2021, MaxMem=  6291456000 cpu:               3.1 elap:               0.2
 (Enter /home/orgChemistry/bin/gaussian16-C.01/g16/l702.exe)
 L702 exits ... SP integral derivatives will be done elsewhere.
 Leave Link  702 at Tue Jan 26 00:25:15 2021, MaxMem=  6291456000 cpu:               0.4 elap:               0.0
 (Enter /home/orgChemistry/bin/gaussian16-C.01/g16/l703.exe)
 Integral derivatives from FoFJK, PRISM(SPDF).
 Compute integral first derivatives, UseDBF=F ICtDFT=           0.
 Calling FoFJK, ICntrl=      2127 FMM=F ISym2X=1 I1Cent= 0 IOpClX= 0 NMat=1 NMatS=1 NMatT=0.
 FoFJK:  IHMeth= 1 ICntrl=    2127 DoSepK=F KAlg= 0 I1Cent=           0 FoldK=F
 IRaf=         0 NMat=       1 IRICut=       1 DoRegI=T DoRafI=F ISym2E= 1 IDoP0=0 IntGTp=1.
 FoFCou: FMM=F IPFlag=           0 FMFlag=      100000 FMFlg1=         800
         NFxFlg=           0 DoJE=F BraDBF=F KetDBF=F FulRan=T
         wScrn=  0.000000 ICntrl=      2127 IOpCl=  0 I1Cent=           0 NGrid=           0
         NMat0=    1 NMatS0=      1 NMatT0=    0 NMatD0=    1 NMtDS0=    0 NMtDT0=    0
 Petite list used in FoFCou.
 Leave Link  703 at Tue Jan 26 00:25:16 2021, MaxMem=  6291456000 cpu:              29.4 elap:               1.4
 (Enter /home/orgChemistry/bin/gaussian16-C.01/g16/l716.exe)
 Dipole        =-4.27939476D-01-7.08033660D-01 1.11421286D-17
 ***** Axes restored to original set *****
 -------------------------------------------------------------------
 Center     Atomic                   Forces (Hartrees/Bohr)
 Number     Number              X              Y              Z
 -------------------------------------------------------------------
      1        6           0.013920444   -0.007544349   -0.000485861
      2        7          -0.006259494    0.001052027    0.000173643
      3        8          -0.009958632    0.001548630    0.000273863
      4        1          -0.005366476    0.002214298    0.000174008
      5        1           0.001830305    0.003193993    0.000016300
      6        1           0.005833854   -0.000464598   -0.000151953
 -------------------------------------------------------------------
 Cartesian Forces:  Max     0.013920444 RMS     0.005134063
 Leave Link  716 at Tue Jan 26 00:25:16 2021, MaxMem=  6291456000 cpu:               0.6 elap:               0.1
 (Enter /home/orgChemistry/bin/gaussian16-C.01/g16/l103.exe)

 GradGradGradGradGradGradGradGradGradGradGradGradGradGradGradGradGradGrad
 Berny optimization.
 Using GEDIIS/GDIIS optimizer.
 FormGI is forming the generalized inverse of G from B-inverse, IUseBI=4.
 Internal  Forces:  Max     0.006616993 RMS     0.003618072
 Search for a local minimum.
 Step number   2 out of a maximum of   24
 All quantities printed in internal units (Hartrees-Bohrs-Radians)
 RMS Force = .36181D-02 SwitMx=.10000D-02 MixMth= 1
 Mixed Optimization -- RFO/linear search
 Update second derivatives using D2CorX and points    1    2
 DE= -1.24D-02 DEPred=-1.37D-02 R= 9.02D-01
 TightC=F SS=  1.41D+00  RLast= 3.00D-01 DXNew= 5.0454D-01 9.0000D-01
 Trust test= 9.02D-01 RLast= 3.00D-01 DXMaxT set to 5.05D-01
 The second derivative matrix:
                          R1        R2        R3        R4        R5
           R1           0.70718
           R2           0.00213   0.54871
           R3           0.00403   0.00131   0.35630
           R4           0.00365   0.00267   0.00361   0.43369
           R5           0.00519   0.00240   0.00309   0.00634   0.54396
           A1           0.00474  -0.00514  -0.00805  -0.01138  -0.01236
           A2           0.01372   0.00359   0.00406   0.01030   0.00845
           A3           0.00330   0.00424   0.00598   0.01039   0.01012
           A4          -0.00171   0.00268   0.00412   0.00604   0.00644
           A5          -0.00577   0.00296   0.00491   0.00613   0.00715
           D1           0.00000   0.00000   0.00000   0.00000   0.00000
           D2          -0.00000  -0.00000  -0.00000  -0.00000  -0.00000
           D3           0.00000   0.00000   0.00000   0.00000   0.00000
           D4           0.00000   0.00000   0.00000   0.00000   0.00000
                          A1        A2        A3        A4        A5
           A1           0.25895
           A2          -0.02504   0.16999
           A3          -0.01535   0.01749   0.17553
           A4          -0.00551   0.01272   0.00831   0.16327
           A5          -0.00180   0.01575   0.00762   0.00159   0.15844
           D1          -0.00000   0.00000   0.00000   0.00000   0.00000
           D2           0.00000  -0.00000  -0.00000  -0.00000  -0.00000
           D3          -0.00000   0.00000   0.00000   0.00000   0.00000
           D4          -0.00000   0.00000   0.00000   0.00000   0.00000
                          D1        D2        D3        D4
           D1           0.03219
           D2          -0.00000   0.03219
           D3          -0.00000   0.00000   0.02337
           D4          -0.00000   0.00000  -0.00000   0.02337
 ITU=  1  0
 Use linear search instead of GDIIS.
     Eigenvalues ---    0.02337   0.02803   0.03219   0.15006   0.16000
     Eigenvalues ---    0.16331   0.26137   0.35723   0.43537   0.54386
     Eigenvalues ---    0.55094   0.70767
 RFO step:  Lambda=-6.83363117D-04 EMin= 2.33749288D-02
 Quartic linear search produced a step of  0.08163.
 Iteration  1 RMS(Cart)=  0.02948094 RMS(Int)=  0.00046356
 Iteration  2 RMS(Cart)=  0.00047203 RMS(Int)=  0.00000006
 Iteration  3 RMS(Cart)=  0.00000010 RMS(Int)=  0.00000000
 ITry= 1 IFail=0 DXMaxC= 6.80D-02 DCOld= 1.00D+10 DXMaxT= 5.05D-01 DXLimC= 3.00D+00 Rises=F
 ClnCor:  largest displacement from symmetrization is 1.01D-08 for atom     2.
 Variable       Old X    -DE/DX   Delta X   Delta X   Delta X     New X
                                 (Linear)    (Quad)   (Total)
    R1        2.38938  -0.00592  -0.00310  -0.00630  -0.00940   2.37998
    R2        2.54722   0.00189  -0.00050   0.00416   0.00366   2.55088
    R3        2.04207   0.00330  -0.00058   0.01055   0.00997   2.05205
    R4        1.92021   0.00338  -0.00223   0.01053   0.00830   1.92851
    R5        1.81447   0.00458  -0.00118   0.01021   0.00903   1.82350
    A1        2.27141  -0.00117   0.01285  -0.01829  -0.00544   2.26596
    A2        2.06642   0.00547  -0.00156   0.03692   0.03536   2.10178
    A3        1.94536  -0.00430  -0.01129  -0.01862  -0.02991   1.91545
    A4        1.99834  -0.00279  -0.00991  -0.00843  -0.01834   1.98001
    A5        1.96210  -0.00662  -0.01378  -0.03010  -0.04388   1.91822
    D1       -0.00000   0.00000   0.00000   0.00000   0.00000   0.00000
    D2        3.14159   0.00000  -0.00000   0.00000   0.00000   3.14159
    D3        0.00000  -0.00000   0.00000  -0.00000  -0.00000   0.00000
    D4       -3.14159  -0.00000   0.00000  -0.00000  -0.00000   3.14159
         Item               Value     Threshold  Converged?
 Maximum Force            0.006617     0.000450     NO 
 RMS     Force            0.003618     0.000300     NO 
 Maximum Displacement     0.068014     0.001800     NO 
 RMS     Displacement     0.029604     0.001200     NO 
 Predicted change in Energy=-4.252668D-04
 Lowest energy point so far.  Saving SCF results.
 GradGradGradGradGradGradGradGradGradGradGradGradGradGradGradGradGradGrad

 Leave Link  103 at Tue Jan 26 00:25:16 2021, MaxMem=  6291456000 cpu:               1.1 elap:               0.1
 (Enter /home/orgChemistry/bin/gaussian16-C.01/g16/l202.exe)
                          Input orientation:                          
 ---------------------------------------------------------------------
 Center     Atomic      Atomic             Coordinates (Angstroms)
 Number     Number       Type             X           Y           Z
 ---------------------------------------------------------------------
      1          6           0       -2.383413    0.833904    0.001949
      2          7           0       -1.271935    0.242889   -0.036627
      3          8           0       -2.659617    2.154822    0.034025
      4          1           0       -3.308443    0.265265    0.013740
      5          1           0       -0.473889    0.878917   -0.044012
      6          1           0       -1.839015    2.662405    0.023625
 ---------------------------------------------------------------------
                    Distance matrix (angstroms):
                    1          2          3          4          5
     1  C    0.000000
     2  N    1.259432   0.000000
     3  O    1.349867   2.363502   0.000000
     4  H    1.085896   2.037253   1.997952   0.000000
     5  H    1.910607   1.020522   2.532080   2.900793   0.000000
     6  H    1.907945   2.485814   0.964954   2.811690   2.246992
                    6
     6  H    0.000000
 Stoichiometry    CH3NO
 Framework group  CS[SG(CH3NO)]
 Deg. of freedom     9
 Full point group                 CS      NOp   2
 RotChk:  IX=0 Diff= 1.77D-02
 Largest Abelian subgroup         CS      NOp   2
 Largest concise Abelian subgroup C1      NOp   1
                         Standard orientation:                         
 ---------------------------------------------------------------------
 Center     Atomic      Atomic             Coordinates (Angstroms)
 Number     Number       Type             X           Y           Z
 ---------------------------------------------------------------------
      1          6           0        0.000000    0.437474    0.000000
      2          7           0        1.219079    0.121220    0.000000
      3          8           0       -1.097211   -0.348827   -0.000000
      4          1           0       -0.297123    1.481930    0.000000
      5          1           0        1.377014   -0.887007    0.000000
      6          1           0       -0.835754   -1.277685   -0.000000
 ---------------------------------------------------------------------
 Rotational constants (GHZ):          67.7824916          11.3815816           9.7452282
 Leave Link  202 at Tue Jan 26 00:25:16 2021, MaxMem=  6291456000 cpu:               1.2 elap:               0.1
 (Enter /home/orgChemistry/bin/gaussian16-C.01/g16/l301.exe)
 Standard basis: 6-311++G(3df,3pd) (5D, 7F)
 Ernie: Thresh=  0.10000D-02 Tol=  0.10000D-05 Strict=F.
 There are   135 symmetry adapted cartesian basis functions of A'  symmetry.
 There are    57 symmetry adapted cartesian basis functions of A"  symmetry.
 There are   117 symmetry adapted basis functions of A'  symmetry.
 There are    54 symmetry adapted basis functions of A"  symmetry.
   171 basis functions,   237 primitive gaussians,   192 cartesian basis functions
    12 alpha electrons       12 beta electrons
       nuclear repulsion energy        70.9744742891 Hartrees.
 IExCor=  402 DFT=T Ex+Corr=B3LYP ExCW=0 ScaHFX=  0.200000
 ScaDFX=  0.800000  0.720000  1.000000  0.810000 ScalE2=  1.000000  1.000000
 IRadAn=      5 IRanWt=     -1 IRanGd=            0 ICorTp=0 IEmpDi=  4
 NAtoms=    6 NActive=    6 NUniq=    6 SFac= 1.00D+00 NAtFMM=   60 NAOKFM=F Big=F
 Integral buffers will be    131072 words long.
 Raffenetti 2 integral format.
 Two-electron integral symmetry is turned on.
 Leave Link  301 at Tue Jan 26 00:25:17 2021, MaxMem=  6291456000 cpu:               1.6 elap:               0.1
 (Enter /home/orgChemistry/bin/gaussian16-C.01/g16/l302.exe)
 NPDir=0 NMtPBC=     1 NCelOv=     1 NCel=       1 NClECP=     1 NCelD=      1
         NCelK=      1 NCelE2=     1 NClLst=     1 CellRange=     0.0.
 One-electron integrals computed using PRISM.
 One-electron integral symmetry used in STVInt
 NBasis=   171 RedAO= T EigKep=  2.22D-04  NBF=   117    54
 NBsUse=   171 1.00D-06 EigRej= -1.00D+00 NBFU=   117    54
 Precomputing XC quadrature grid using
 IXCGrd= 4 IRadAn=           5 IRanWt=          -1 IRanGd=           0 AccXCQ= 0.00D+00.
 Generated NRdTot=       0 NPtTot=           0 NUsed=           0 NTot=          32
 NSgBfM=   192   192   192   192   192 MxSgAt=     6 MxSgA2=     6.
 Leave Link  302 at Tue Jan 26 00:25:17 2021, MaxMem=  6291456000 cpu:              12.4 elap:               0.6
 (Enter /home/orgChemistry/bin/gaussian16-C.01/g16/l303.exe)
 DipDrv:  MaxL=1.
 Leave Link  303 at Tue Jan 26 00:25:17 2021, MaxMem=  6291456000 cpu:               1.2 elap:               0.1
 (Enter /home/orgChemistry/bin/gaussian16-C.01/g16/l401.exe)
 Initial guess from the checkpoint file:  "file_name.chk"
 B after Tr=    -0.000000   -0.000000   -0.000000
         Rot=    0.999992   -0.000000   -0.000000   -0.004116 Ang=  -0.47 deg.
 Guess basis will be translated and rotated to current coordinates.
 JPrj=2 DoOrth=T DoCkMO=T.
 Initial guess orbital symmetries:
       Occupied  (A') (A') (A') (A') (A') (A') (A') (A') (A") (A')
                 (A") (A')
       Virtual   (A') (A") (A') (A') (A") (A') (A') (A') (A') (A')
                 (A") (A') (A') (A") (A') (A') (A') (A') (A') (A")
                 (A') (A') (A") (A') (A") (A') (A') (A') (A") (A')
                 (A") (A') (A') (A") (A') (A') (A') (A') (A") (A')
                 (A') (A') (A') (A") (A') (A") (A') (A") (A') (A')
                 (A") (A') (A") (A') (A') (A') (A') (A") (A') (A')
                 (A') (A") (A") (A') (A") (A') (A') (A') (A") (A')
                 (A') (A') (A') (A") (A") (A') (A') (A') (A") (A')
                 (A") (A') (A') (A") (A') (A') (A") (A') (A") (A")
                 (A') (A') (A") (A') (A') (A") (A') (A') (A") (A')
                 (A") (A') (A") (A') (A') (A") (A') (A') (A") (A')
                 (A') (A') (A') (A") (A') (A') (A") (A") (A') (A")
                 (A') (A') (A') (A") (A') (A") (A') (A') (A") (A')
                 (A') (A') (A") (A") (A') (A') (A') (A") (A") (A")
                 (A') (A') (A') (A') (A') (A') (A") (A') (A") (A')
                 (A') (A") (A') (A") (A') (A') (A') (A') (A')
 The electronic state of the initial guess is 1-A'.
 Generating alternative initial guess.
 ExpMin= 3.60D-02 ExpMax= 8.59D+03 ExpMxC= 1.30D+03 IAcc=3 IRadAn=         5 AccDes= 0.00D+00
 Harris functional with IExCor=  402 and IRadAn=       5 diagonalized for initial guess.
 HarFok:  IExCor=  402 AccDes= 0.00D+00 IRadAn=         5 IDoV= 1 UseB2=F ITyADJ=14
 ICtDFT=  3500011 ScaDFX=  1.000000  1.000000  1.000000  1.000000
 FoFCou: FMM=F IPFlag=           0 FMFlag=      100000 FMFlg1=           0
         NFxFlg=           0 DoJE=T BraDBF=F KetDBF=T FulRan=T
         wScrn=  0.000000 ICntrl=       500 IOpCl=  0 I1Cent=   200000004 NGrid=           0
         NMat0=    1 NMatS0=      1 NMatT0=    0 NMatD0=    1 NMtDS0=    0 NMtDT0=    0
 Petite list used in FoFCou.
 Harris En= -169.959687673668    
 Leave Link  401 at Tue Jan 26 00:25:18 2021, MaxMem=  6291456000 cpu:               6.9 elap:               0.3
 (Enter /home/orgChemistry/bin/gaussian16-C.01/g16/l502.exe)
 Keep R1 ints in memory in symmetry-blocked form, NReq=163318983.
 FoFCou: FMM=F IPFlag=           0 FMFlag=           0 FMFlg1=           0
         NFxFlg=           0 DoJE=F BraDBF=F KetDBF=F FulRan=T
         wScrn=  0.000000 ICntrl=       600 IOpCl=  0 I1Cent=           0 NGrid=           0
         NMat0=    1 NMatS0=  14706 NMatT0=    0 NMatD0=    1 NMtDS0=    0 NMtDT0=    0
 Petite list used in FoFCou.
 Closed shell SCF:
 Using DIIS extrapolation, IDIIS=  1040.
 NGot=  6291456000 LenX=  6236198572 LenY=  6236161267
 Requested convergence on RMS density matrix=1.00D-08 within 128 cycles.
 Requested convergence on MAX density matrix=1.00D-06.
 Requested convergence on             energy=1.00D-06.
 No special actions if energy rises.

 Cycle   1  Pass 1  IDiag  1:
 E= -169.941315681580    
 DIIS: error= 2.37D-03 at cycle   1 NSaved=   1.
 NSaved= 1 IEnMin= 1 EnMin= -169.941315681580     IErMin= 1 ErrMin= 2.37D-03
 ErrMax= 2.37D-03  0.00D+00 EMaxC= 1.00D-01 BMatC= 8.58D-04 BMatP= 8.58D-04
 IDIUse=3 WtCom= 9.76D-01 WtEn= 2.37D-02
 Coeff-Com:  0.100D+01
 Coeff-En:   0.100D+01
 Coeff:      0.100D+01
 Gap=     0.280 Goal=   None    Shift=    0.000
 GapD=    0.280 DampG=1.000 DampE=1.000 DampFc=1.0000 IDamp=-1.
 RMSDP=1.38D-04 MaxDP=4.88D-03              OVMax= 5.52D-03

 Cycle   2  Pass 1  IDiag  1:
 E= -169.941702375811     Delta-E=       -0.000386694231 Rises=F Damp=F
 DIIS: error= 4.68D-04 at cycle   2 NSaved=   2.
 NSaved= 2 IEnMin= 2 EnMin= -169.941702375811     IErMin= 2 ErrMin= 4.68D-04
 ErrMax= 4.68D-04  0.00D+00 EMaxC= 1.00D-01 BMatC= 2.66D-05 BMatP= 8.58D-04
 IDIUse=3 WtCom= 9.95D-01 WtEn= 4.68D-03
 Coeff-Com:  0.279D-01 0.972D+00
 Coeff-En:   0.000D+00 0.100D+01
 Coeff:      0.278D-01 0.972D+00
 Gap=     0.271 Goal=   None    Shift=    0.000
 RMSDP=4.76D-05 MaxDP=2.08D-03 DE=-3.87D-04 OVMax= 5.47D-03

 Cycle   3  Pass 1  IDiag  1:
 E= -169.941652095398     Delta-E=        0.000050280412 Rises=F Damp=F
 DIIS: error= 1.01D-03 at cycle   3 NSaved=   3.
 NSaved= 3 IEnMin= 2 EnMin= -169.941702375811     IErMin= 2 ErrMin= 4.68D-04
 ErrMax= 1.01D-03  0.00D+00 EMaxC= 1.00D-01 BMatC= 8.77D-05 BMatP= 2.66D-05
 IDIUse=3 WtCom= 2.39D-01 WtEn= 7.61D-01
 Coeff-Com: -0.972D-02 0.655D+00 0.354D+00
 Coeff-En:   0.000D+00 0.725D+00 0.275D+00
 Coeff:     -0.233D-02 0.709D+00 0.294D+00
 Gap=     0.272 Goal=   None    Shift=    0.000
 RMSDP=2.64D-05 MaxDP=1.08D-03 DE= 5.03D-05 OVMax= 3.41D-03

 Cycle   4  Pass 1  IDiag  1:
 E= -169.941723463952     Delta-E=       -0.000071368553 Rises=F Damp=F
 DIIS: error= 1.11D-04 at cycle   4 NSaved=   4.
 NSaved= 4 IEnMin= 4 EnMin= -169.941723463952     IErMin= 4 ErrMin= 1.11D-04
 ErrMax= 1.11D-04  0.00D+00 EMaxC= 1.00D-01 BMatC= 1.91D-06 BMatP= 2.66D-05
 IDIUse=3 WtCom= 9.99D-01 WtEn= 1.11D-03
 Coeff-Com: -0.717D-02 0.288D+00 0.791D-01 0.640D+00
 Coeff-En:   0.000D+00 0.000D+00 0.000D+00 0.100D+01
 Coeff:     -0.717D-02 0.287D+00 0.791D-01 0.641D+00
 Gap=     0.273 Goal=   None    Shift=    0.000
 RMSDP=6.22D-06 MaxDP=2.51D-04 DE=-7.14D-05 OVMax= 4.25D-04

 Cycle   5  Pass 1  IDiag  1:
 E= -169.941725029241     Delta-E=       -0.000001565290 Rises=F Damp=F
 DIIS: error= 2.28D-05 at cycle   5 NSaved=   5.
 NSaved= 5 IEnMin= 5 EnMin= -169.941725029241     IErMin= 5 ErrMin= 2.28D-05
 ErrMax= 2.28D-05  0.00D+00 EMaxC= 1.00D-01 BMatC= 7.63D-08 BMatP= 1.91D-06
 IDIUse=1 WtCom= 1.00D+00 WtEn= 0.00D+00
 Coeff-Com: -0.149D-02 0.372D-01-0.941D-02 0.257D+00 0.717D+00
 Coeff:     -0.149D-02 0.372D-01-0.941D-02 0.257D+00 0.717D+00
 Gap=     0.273 Goal=   None    Shift=    0.000
 RMSDP=1.22D-06 MaxDP=3.63D-05 DE=-1.57D-06 OVMax= 7.72D-05

 Cycle   6  Pass 1  IDiag  1:
 E= -169.941725088761     Delta-E=       -0.000000059520 Rises=F Damp=F
 DIIS: error= 5.84D-06 at cycle   6 NSaved=   6.
 NSaved= 6 IEnMin= 6 EnMin= -169.941725088761     IErMin= 6 ErrMin= 5.84D-06
 ErrMax= 5.84D-06  0.00D+00 EMaxC= 1.00D-01 BMatC= 5.46D-09 BMatP= 7.63D-08
 IDIUse=1 WtCom= 1.00D+00 WtEn= 0.00D+00
 Coeff-Com: -0.276D-03 0.162D-02-0.738D-02 0.747D-01 0.311D+00 0.621D+00
 Coeff:     -0.276D-03 0.162D-02-0.738D-02 0.747D-01 0.311D+00 0.621D+00
 Gap=     0.273 Goal=   None    Shift=    0.000
 RMSDP=3.09D-07 MaxDP=1.28D-05 DE=-5.95D-08 OVMax= 2.64D-05

 Cycle   7  Pass 1  IDiag  1:
 E= -169.941725091487     Delta-E=       -0.000000002725 Rises=F Damp=F
 DIIS: error= 2.63D-06 at cycle   7 NSaved=   7.
 NSaved= 7 IEnMin= 7 EnMin= -169.941725091487     IErMin= 7 ErrMin= 2.63D-06
 ErrMax= 2.63D-06  0.00D+00 EMaxC= 1.00D-01 BMatC= 1.25D-09 BMatP= 5.46D-09
 IDIUse=1 WtCom= 1.00D+00 WtEn= 0.00D+00
 Coeff-Com:  0.396D-04-0.436D-02-0.250D-02 0.512D-02 0.786D-01 0.363D+00
 Coeff-Com:  0.561D+00
 Coeff:      0.396D-04-0.436D-02-0.250D-02 0.512D-02 0.786D-01 0.363D+00
 Coeff:      0.561D+00
 Gap=     0.273 Goal=   None    Shift=    0.000
 RMSDP=1.15D-07 MaxDP=6.15D-06 DE=-2.73D-09 OVMax= 1.15D-05

 Cycle   8  Pass 1  IDiag  1:
 E= -169.941725092473     Delta-E=       -0.000000000986 Rises=F Damp=F
 DIIS: error= 2.31D-07 at cycle   8 NSaved=   8.
 NSaved= 8 IEnMin= 8 EnMin= -169.941725092473     IErMin= 8 ErrMin= 2.31D-07
 ErrMax= 2.31D-07  0.00D+00 EMaxC= 1.00D-01 BMatC= 7.77D-12 BMatP= 1.25D-09
 IDIUse=1 WtCom= 1.00D+00 WtEn= 0.00D+00
 Coeff-Com:  0.203D-04-0.133D-02-0.411D-03-0.985D-03 0.154D-01 0.884D-01
 Coeff-Com:  0.160D+00 0.739D+00
 Coeff:      0.203D-04-0.133D-02-0.411D-03-0.985D-03 0.154D-01 0.884D-01
 Coeff:      0.160D+00 0.739D+00
 Gap=     0.273 Goal=   None    Shift=    0.000
 RMSDP=1.18D-08 MaxDP=2.87D-07 DE=-9.86D-10 OVMax= 7.29D-07

 Cycle   9  Pass 1  IDiag  1:
 E= -169.941725092478     Delta-E=       -0.000000000006 Rises=F Damp=F
 DIIS: error= 3.42D-08 at cycle   9 NSaved=   9.
 NSaved= 9 IEnMin= 9 EnMin= -169.941725092478     IErMin= 9 ErrMin= 3.42D-08
 ErrMax= 3.42D-08  0.00D+00 EMaxC= 1.00D-01 BMatC= 1.01D-13 BMatP= 7.77D-12
 IDIUse=1 WtCom= 1.00D+00 WtEn= 0.00D+00
 Coeff-Com:  0.124D-05-0.222D-04 0.592D-04-0.480D-03-0.925D-03-0.114D-02
 Coeff-Com:  0.227D-02 0.965D-01 0.904D+00
 Coeff:      0.124D-05-0.222D-04 0.592D-04-0.480D-03-0.925D-03-0.114D-02
 Coeff:      0.227D-02 0.965D-01 0.904D+00
 Gap=     0.273 Goal=   None    Shift=    0.000
 RMSDP=2.23D-09 MaxDP=4.13D-08 DE=-5.66D-12 OVMax= 1.02D-07

 SCF Done:  E(RB3LYP) =  -169.941725092     A.U. after    9 cycles
            NFock=  9  Conv=0.22D-08     -V/T= 2.0038
 KE= 1.692917560544D+02 PE=-5.404565144150D+02 EE= 1.302485589791D+02
 Leave Link  502 at Tue Jan 26 00:25:20 2021, MaxMem=  6291456000 cpu:              33.4 elap:               1.9
 (Enter /home/orgChemistry/bin/gaussian16-C.01/g16/l701.exe)
 ... and contract with generalized density number  0.
 Compute integral first derivatives.
 Leave Link  701 at Tue Jan 26 00:25:20 2021, MaxMem=  6291456000 cpu:               5.2 elap:               0.3
 (Enter /home/orgChemistry/bin/gaussian16-C.01/g16/l702.exe)
 L702 exits ... SP integral derivatives will be done elsewhere.
 Leave Link  702 at Tue Jan 26 00:25:20 2021, MaxMem=  6291456000 cpu:               0.7 elap:               0.1
 (Enter /home/orgChemistry/bin/gaussian16-C.01/g16/l703.exe)
 Integral derivatives from FoFJK, PRISM(SPDF).
 Compute integral first derivatives, UseDBF=F ICtDFT=           0.
 Calling FoFJK, ICntrl=      2127 FMM=F ISym2X=1 I1Cent= 0 IOpClX= 0 NMat=1 NMatS=1 NMatT=0.
 FoFJK:  IHMeth= 1 ICntrl=    2127 DoSepK=F KAlg= 0 I1Cent=           0 FoldK=F
 IRaf=         0 NMat=       1 IRICut=       1 DoRegI=T DoRafI=F ISym2E= 1 IDoP0=0 IntGTp=1.
 FoFCou: FMM=F IPFlag=           0 FMFlag=      100000 FMFlg1=         800
         NFxFlg=           0 DoJE=F BraDBF=F KetDBF=F FulRan=T
         wScrn=  0.000000 ICntrl=      2127 IOpCl=  0 I1Cent=           0 NGrid=           0
         NMat0=    1 NMatS0=      1 NMatT0=    0 NMatD0=    1 NMtDS0=    0 NMtDT0=    0
 Petite list used in FoFCou.
 Leave Link  703 at Tue Jan 26 00:25:21 2021, MaxMem=  6291456000 cpu:              21.4 elap:               0.9
 (Enter /home/orgChemistry/bin/gaussian16-C.01/g16/l716.exe)
 Dipole        =-4.03933304D-01-6.91265824D-01 1.11228177D-18
 ***** Axes restored to original set *****
 -------------------------------------------------------------------
 Center     Atomic                   Forces (Hartrees/Bohr)
 Number     Number              X              Y              Z
 -------------------------------------------------------------------
      1        6           0.000197360   -0.004967714   -0.000099997
      2        7          -0.000049579    0.000456244    0.000009955
      3        8          -0.000804948    0.003498421    0.000086751
      4        1          -0.000130838    0.000111615    0.000005346
      5        1           0.000319630   -0.000012334   -0.000008074
      6        1           0.000468375    0.000913768    0.000006018
 -------------------------------------------------------------------
 Cartesian Forces:  Max     0.004967714 RMS     0.001472312
 Leave Link  716 at Tue Jan 26 00:25:21 2021, MaxMem=  6291456000 cpu:               0.6 elap:               0.1
 (Enter /home/orgChemistry/bin/gaussian16-C.01/g16/l103.exe)

 GradGradGradGradGradGradGradGradGradGradGradGradGradGradGradGradGradGrad
 Berny optimization.
 Using GEDIIS/GDIIS optimizer.
 FormGI is forming the generalized inverse of G from B-inverse, IUseBI=4.
 Internal  Forces:  Max     0.004388638 RMS     0.001240527
 Search for a local minimum.
 Step number   3 out of a maximum of   24
 All quantities printed in internal units (Hartrees-Bohrs-Radians)
 RMS Force = .12405D-02 SwitMx=.10000D-02 MixMth= 1
 Mixed Optimization -- RFO/linear search
 Update second derivatives using D2CorX and points    1    2    3
 DE= -4.15D-04 DEPred=-4.25D-04 R= 9.76D-01
 TightC=F SS=  1.41D+00  RLast= 6.92D-02 DXNew= 8.4853D-01 2.0758D-01
 Trust test= 9.76D-01 RLast= 6.92D-02 DXMaxT set to 5.05D-01
 The second derivative matrix:
                          R1        R2        R3        R4        R5
           R1           0.70674
           R2           0.03561   0.55564
           R3           0.00470  -0.01363   0.35553
           R4           0.00578  -0.01023   0.00208   0.43149
           R5           0.01224  -0.01474  -0.00071   0.00195   0.53599
           A1          -0.00455  -0.00724  -0.00329  -0.00687  -0.00671
           A2           0.01180  -0.01844   0.00415   0.00907   0.00434
           A3          -0.00116   0.03131   0.00824   0.01354   0.01790
           A4           0.00179   0.02140   0.00271   0.00557   0.00813
           A5           0.00202   0.04334   0.00203   0.00546   0.01109
           D1          -0.00000  -0.00000   0.00000   0.00000   0.00000
           D2           0.00000  -0.00000  -0.00000  -0.00000  -0.00000
           D3          -0.00000   0.00000   0.00000   0.00000   0.00000
           D4          -0.00000   0.00000   0.00000   0.00000   0.00000
                          A1        A2        A3        A4        A5
           A1           0.25810
           A2          -0.01782   0.17186
           A3          -0.02252   0.01835   0.16844
           A4          -0.01045   0.00903   0.00887   0.16718
           A5          -0.01314   0.00814   0.00920   0.01028   0.17744
           D1          -0.00000   0.00000  -0.00000  -0.00000  -0.00000
           D2           0.00000  -0.00000   0.00000   0.00000   0.00000
           D3          -0.00000   0.00000  -0.00000  -0.00000  -0.00000
           D4          -0.00000   0.00000  -0.00000  -0.00000  -0.00000
                          D1        D2        D3        D4
           D1           0.03219
           D2           0.00000   0.03219
           D3          -0.00000   0.00000   0.02337
           D4          -0.00000   0.00000  -0.00000   0.02337
 ITU=  1  1  0
 Use linear search instead of GDIIS.
     Eigenvalues ---    0.02337   0.02817   0.03219   0.14731   0.16057
     Eigenvalues ---    0.17258   0.26287   0.35559   0.43258   0.53058
     Eigenvalues ---    0.56564   0.71587
 RFO step:  Lambda=-4.14800143D-05 EMin= 2.33749288D-02
 Quartic linear search produced a step of -0.01056.
 Iteration  1 RMS(Cart)=  0.00310218 RMS(Int)=  0.00000275
 Iteration  2 RMS(Cart)=  0.00000246 RMS(Int)=  0.00000000
 Iteration  3 RMS(Cart)=  0.00000000 RMS(Int)=  0.00000000
 ITry= 1 IFail=0 DXMaxC= 8.55D-03 DCOld= 1.00D+10 DXMaxT= 5.05D-01 DXLimC= 3.00D+00 Rises=F
 ClnCor:  largest displacement from symmetrization is 8.29D-10 for atom     6.
 Variable       Old X    -DE/DX   Delta X   Delta X   Delta X     New X
                                 (Linear)    (Quad)   (Total)
    R1        2.37998   0.00003   0.00010  -0.00057  -0.00047   2.37951
    R2        2.55088   0.00439  -0.00004   0.00795   0.00791   2.55879
    R3        2.05205   0.00005  -0.00011   0.00054   0.00043   2.05248
    R4        1.92851   0.00024  -0.00009   0.00076   0.00067   1.92918
    R5        1.82350   0.00088  -0.00010   0.00191   0.00181   1.82531
    A1        2.26596  -0.00044   0.00006  -0.00115  -0.00110   2.26487
    A2        2.10178   0.00039  -0.00037   0.00347   0.00310   2.10487
    A3        1.91545   0.00005   0.00032  -0.00231  -0.00200   1.91345
    A4        1.98001   0.00040   0.00019   0.00076   0.00096   1.98096
[...]
                                                                           X                   X                                     
                                                                           X                   X                                     
                                                                           X                   X                                     
                                                                           X                                                         
                                                                           X                                                         
 
 ***** Axes restored to original set *****
 -------------------------------------------------------------------
 Center     Atomic                   Forces (Hartrees/Bohr)
 Number     Number              X              Y              Z
 -------------------------------------------------------------------
      1        6           0.000022321   -0.000095064   -0.000002368
      2        7          -0.000002258    0.000123563    0.000002422
      3        8           0.000060393    0.000095579    0.000000350
      4        1           0.000031660    0.000006498   -0.000000652
      5        1          -0.000043104   -0.000072500   -0.000000332
      6        1          -0.000069012   -0.000058076    0.000000580
 -------------------------------------------------------------------
 Cartesian Forces:  Max     0.000123563 RMS     0.000054720
 Force constants in Cartesian coordinates: 
                1             2             3             4             5 
      1  0.959129D+00
      2 -0.533153D-01  0.625071D+00
      3 -0.204799D-01  0.101088D-01  0.166286D+00
      4 -0.549282D+00  0.211102D+00  0.158368D-01  0.841158D+00
      5  0.154065D+00 -0.194779D+00 -0.619965D-02 -0.574436D-01  0.404478D+00
      6  0.147442D-01 -0.759828D-02 -0.688570D-01 -0.200666D-01  0.785968D-02
      7 -0.127122D+00  0.865758D-03  0.181253D-02 -0.603712D-02  0.602209D-01
      8  0.410761D-01 -0.272219D+00 -0.518953D-02  0.386785D-01 -0.507388D-01
      9  0.258276D-02 -0.420352D-02 -0.540258D-01  0.177851D-02 -0.314351D-02
     10 -0.246403D+00 -0.126391D+00  0.236415D-02 -0.325566D-01 -0.699605D-02
     11 -0.122231D+00 -0.122304D+00  0.163636D-02  0.170957D-01  0.112360D-01
     12  0.244383D-02  0.173836D-02 -0.512850D-01  0.114267D-02  0.373606D-03
     13 -0.416404D-01 -0.330336D-01  0.554793D-03 -0.255463D+00 -0.154255D+00
     14  0.285983D-01 -0.331337D-02 -0.894786D-03 -0.210969D+00 -0.177306D+00
     15  0.173537D-02  0.616507D-03  0.675858D-02  0.141848D-02  0.101476D-02
     16  0.531849D-02  0.771339D-03 -0.883986D-04  0.218034D-02  0.440904D-02
     17 -0.481934D-01 -0.324561D-01  0.538779D-03  0.153562D-02  0.710927D-02
     18 -0.102633D-02 -0.661900D-03  0.112346D-02 -0.109881D-03  0.951131D-04
                6             7             8             9            10 
      6  0.683416D-01
      7  0.219116D-02  0.501761D+00
      8 -0.261527D-02  0.136967D+00  0.508872D+00
      9  0.361737D-01 -0.884560D-02  0.573700D-02  0.343623D-01
     10  0.681183D-03  0.578717D-02  0.303802D-02  0.437852D-04  0.274060D+00
     11 -0.217155D-03 -0.281290D-01 -0.328057D-01 -0.382404D-04  0.127282D+00
     12  0.666888D-03 -0.553227D-03 -0.802497D-03  0.519776D-02 -0.359508D-02
     13  0.250484D-02  0.752766D-02 -0.206038D-02 -0.481766D-03 -0.294492D-02
     14  0.240545D-02  0.149197D-02  0.533397D-02  0.266904D-03  0.318587D-03
     15 -0.328295D-01 -0.413720D-03  0.354012D-03 -0.104927D-01  0.386905D-03
     16 -0.548399D-04 -0.381916D+00 -0.217699D+00  0.492231D-02  0.205683D-02
     17  0.165573D-03 -0.171416D+00 -0.158443D+00  0.138137D-02  0.274838D-02
     18 -0.349576D-02  0.580886D-02  0.251628D-02 -0.112152D-01  0.119058D-03
               11            12            13            14            15 
     11  0.148074D+00
     12 -0.821483D-03  0.280938D-01
     13  0.427299D-02  0.462653D-03  0.293685D+00
     14  0.138504D-02 -0.222341D-03  0.181425D+00  0.174352D+00
     15 -0.319308D-03  0.125689D-01 -0.314806D-02 -0.156073D-02  0.236282D-01
     16  0.170936D-02  0.991556D-04 -0.116467D-02 -0.865566D-03  0.210279D-04
     17 -0.558479D-02 -0.265650D-03  0.365093D-02 -0.451772D-03 -0.105248D-03
     18 -0.240172D-03  0.475767D-02  0.107543D-03  0.550228D-05  0.366490D-03
               16            17            18 
     16  0.373525D+00
     17  0.211675D+00  0.189826D+00
     18 -0.489925D-02 -0.171483D-02  0.846332D-02
 FormGI is forming the generalized inverse of G from B-inverse, IUseBI=4.
 Force constants in internal coordinates: 
                1             2             3             4             5 
      1  0.736591D+00
      2  0.597718D-01  0.386906D+00
      3  0.173778D-01  0.132821D-01  0.353104D+00
      4  0.108872D-02  0.309260D-02 -0.390376D-03  0.424231D+00
      5  0.131643D-03  0.832125D-02 -0.195064D-02  0.129228D-03  0.512201D+00
      6  0.125145D-01  0.172006D-01 -0.132801D-01 -0.100987D-01 -0.120975D-01
      7  0.202405D-01 -0.389656D-01  0.438928D-02  0.986370D-02  0.302818D-02
      8 -0.327550D-01  0.217650D-01  0.889078D-02  0.235008D-03  0.906936D-02
      9  0.626925D-01 -0.673090D-02  0.185643D-02  0.336820D-01  0.260157D-02
     10  0.300402D-02  0.388814D-01  0.341865D-02  0.539056D-02  0.202897D-01
     11  0.000000D+00  0.000000D+00  0.000000D+00  0.000000D+00  0.000000D+00
     12  0.000000D+00  0.000000D+00  0.000000D+00  0.000000D+00  0.000000D+00
     13  0.000000D+00  0.000000D+00  0.000000D+00  0.000000D+00  0.000000D+00
     14  0.000000D+00  0.000000D+00  0.000000D+00  0.000000D+00  0.000000D+00
                6             7             8             9            10 
      6  0.167659D+00
      7 -0.805916D-01  0.111389D+00
      8 -0.870672D-01 -0.307971D-01  0.117864D+00
      9 -0.726883D-02  0.847840D-02 -0.120957D-02  0.163001D+00
     10 -0.164503D-01 -0.202813D-02  0.184784D-01  0.794525D-02  0.170489D+00
     11  0.000000D+00  0.000000D+00  0.000000D+00  0.000000D+00  0.000000D+00
     12  0.000000D+00  0.000000D+00  0.000000D+00  0.000000D+00  0.000000D+00
     13  0.000000D+00  0.000000D+00  0.000000D+00  0.000000D+00  0.000000D+00
     14  0.000000D+00  0.000000D+00  0.000000D+00  0.000000D+00  0.000000D+00
               11            12            13            14 
     11  0.348177D-01
     12  0.890870D-03  0.369448D-01
     13 -0.150327D-01  0.154407D-01  0.193641D-01
     14  0.159213D-01 -0.174539D-01 -0.843906D-02  0.220117D-01
 Leave Link  716 at Tue Jan 26 00:25:48 2021, MaxMem=  6291456000 cpu:               3.0 elap:               0.2
 (Enter /home/orgChemistry/bin/gaussian16-C.01/g16/l103.exe)

 GradGradGradGradGradGradGradGradGradGradGradGradGradGradGradGradGradGrad
 Berny optimization.
 Red2BG is reusing G-inverse.
 Internal  Forces:  Max     0.000089265 RMS     0.000042169
 Search for a local minimum.
 Step number   1 out of a maximum of    2
 All quantities printed in internal units (Hartrees-Bohrs-Radians)
 Second derivative matrix not updated -- analytic derivatives used.
 The second derivative matrix:
                          R1        R2        R3        R4        R5
           R1           0.73659
           R2           0.05977   0.38691
           R3           0.01738   0.01328   0.35310
           R4           0.00109   0.00309  -0.00039   0.42423
           R5           0.00013   0.00832  -0.00195   0.00013   0.51220
           A1           0.01251   0.01720  -0.01328  -0.01010  -0.01210
           A2           0.02024  -0.03897   0.00439   0.00986   0.00303
           A3          -0.03275   0.02176   0.00889   0.00024   0.00907
           A4           0.06269  -0.00673   0.00186   0.03368   0.00260
           A5           0.00300   0.03888   0.00342   0.00539   0.02029
           D1           0.00000  -0.00000   0.00000  -0.00000   0.00000
           D2          -0.00000   0.00000  -0.00000   0.00000  -0.00000
           D3          -0.00000   0.00000  -0.00000   0.00000  -0.00000
           D4          -0.00000  -0.00000   0.00000  -0.00000   0.00000
                          A1        A2        A3        A4        A5
           A1           0.16766
           A2          -0.08059   0.11139
           A3          -0.08707  -0.03080   0.11786
           A4          -0.00727   0.00848  -0.00121   0.16300
           A5          -0.01645  -0.00203   0.01848   0.00795   0.17049
           D1          -0.00000   0.00000  -0.00000   0.00000  -0.00000
           D2          -0.00000  -0.00000   0.00000   0.00000   0.00000
           D3           0.00000  -0.00000   0.00000  -0.00000   0.00000
           D4          -0.00000   0.00000  -0.00000  -0.00000   0.00000
                          D1        D2        D3        D4
           D1           0.03482
           D2           0.00089   0.03694
           D3          -0.01503   0.01544   0.01936
           D4           0.01592  -0.01745  -0.00844   0.02201
 ITU=  0
     Eigenvalues ---    0.01216   0.03671   0.06427   0.13208   0.14682
     Eigenvalues ---    0.16170   0.25111   0.35334   0.39741   0.42965
     Eigenvalues ---    0.51531   0.75603
 Angle between quadratic step and forces=  32.40 degrees.
 Linear search not attempted -- first point.
 Iteration  1 RMS(Cart)=  0.00018027 RMS(Int)=  0.00000004
 Iteration  2 RMS(Cart)=  0.00000004 RMS(Int)=  0.00000000
 ITry= 1 IFail=0 DXMaxC= 4.15D-04 DCOld= 1.00D+10 DXMaxT= 3.00D-01 DXLimC= 3.00D+00 Rises=F
 ClnCor:  largest displacement from symmetrization is 4.51D-09 for atom     3.
 Variable       Old X    -DE/DX   Delta X   Delta X   Delta X     New X
                                 (Linear)    (Quad)   (Total)
    R1        2.37870  -0.00006   0.00000  -0.00013  -0.00013   2.37857
    R2        2.56259   0.00004   0.00000   0.00015   0.00015   2.56274
    R3        2.05179  -0.00003   0.00000  -0.00009  -0.00009   2.05170
    R4        1.92877  -0.00008   0.00000  -0.00022  -0.00022   1.92855
    R5        1.82502  -0.00009   0.00000  -0.00017  -0.00017   1.82485
    A1        2.26373  -0.00001   0.00000  -0.00005  -0.00005   2.26368
    A2        2.10702  -0.00001   0.00000  -0.00002  -0.00002   2.10700
    A3        1.91244   0.00001   0.00000   0.00007   0.00007   1.91251
    A4        1.98247   0.00006   0.00000   0.00047   0.00047   1.98294
    A5        1.92121  -0.00002   0.00000  -0.00017  -0.00017   1.92104
    D1        0.00000  -0.00000   0.00000  -0.00000   0.00000   0.00000
    D2        3.14159   0.00000   0.00000  -0.00000   0.00000   3.14159
    D3       -0.00000   0.00000   0.00000  -0.00000  -0.00000  -0.00000
    D4        3.14159  -0.00000   0.00000  -0.00000   0.00000   3.14159
         Item               Value     Threshold  Converged?
 Maximum Force            0.000089     0.000450     YES
 RMS     Force            0.000042     0.000300     YES
 Maximum Displacement     0.000415     0.001800     YES
 RMS     Displacement     0.000180     0.001200     YES
 Predicted change in Energy=-4.136205D-08
 Optimization completed.
    -- Stationary point found.
                           ----------------------------
                           !   Optimized Parameters   !
                           ! (Angstroms and Degrees)  !
 --------------------------                            --------------------------
 ! Name  Definition              Value          Derivative Info.                !
 --------------------------------------------------------------------------------
 ! R1    R(1,2)                  1.2588         -DE/DX =   -0.0001              !
 ! R2    R(1,3)                  1.3561         -DE/DX =    0.0                 !
 ! R3    R(1,4)                  1.0858         -DE/DX =    0.0                 !
 ! R4    R(2,5)                  1.0207         -DE/DX =   -0.0001              !
 ! R5    R(3,6)                  0.9658         -DE/DX =   -0.0001              !
 ! A1    A(2,1,3)              129.7022         -DE/DX =    0.0                 !
 ! A2    A(2,1,4)              120.7232         -DE/DX =    0.0                 !
 ! A3    A(3,1,4)              109.5746         -DE/DX =    0.0                 !
 ! A4    A(1,2,5)              113.5872         -DE/DX =    0.0001              !
 ! A5    A(1,3,6)              110.0773         -DE/DX =    0.0                 !
 ! D1    D(3,1,2,5)              0.0            -DE/DX =    0.0                 !
 ! D2    D(4,1,2,5)            180.0            -DE/DX =    0.0                 !
 ! D3    D(2,1,3,6)              0.0            -DE/DX =    0.0                 !
 ! D4    D(4,1,3,6)            180.0            -DE/DX =    0.0                 !
 --------------------------------------------------------------------------------
 GradGradGradGradGradGradGradGradGradGradGradGradGradGradGradGradGradGrad

 Leave Link  103 at Tue Jan 26 00:25:48 2021, MaxMem=  6291456000 cpu:               9.4 elap:               0.5
 (Enter /home/orgChemistry/bin/gaussian16-C.01/g16/l9999.exe)

 ----------------------------------------------------------------------

 Electric dipole moment (input orientation):
 (Debye = 10**-18 statcoulomb cm , SI units = C m)
                  (au)            (Debye)         (10**-30 SI)
   Tot        0.790646D+00      0.200962D+01      0.670338D+01
   x          0.176500D+00      0.448617D+00      0.149643D+01
   y          0.770623D+00      0.195873D+01      0.653362D+01
   z          0.104335D-01      0.265193D-01      0.884588D-01

 Dipole polarizability, Alpha (input orientation).
 (esu units = cm**3 , SI units = C**2 m**2 J**-1)
 Alpha(0;0):
               (au)            (10**-24 esu)      (10**-40 SI)
   iso        0.276541D+02      0.409792D+01      0.455955D+01
   aniso      0.129740D+02      0.192256D+01      0.213913D+01
   xx         0.318354D+02      0.471752D+01      0.524895D+01
   yx        -0.319716D+01     -0.473770D+00     -0.527140D+00
   yy         0.312696D+02      0.463367D+01      0.515565D+01
   zx        -0.355313D+00     -0.526520D-01     -0.585833D-01
   zy         0.297278D+00      0.440521D-01      0.490146D-01
   zz         0.198573D+02      0.294255D+01      0.327403D+01

 ----------------------------------------------------------------------

 Dipole orientation:
     6         -4.61937300          1.06146917          0.52379596
     7         -2.36624344          0.61181107         -0.09218318
     8         -5.66924952          1.27099351          2.85204367
     1         -6.06019910          1.34901550         -0.90840409
     1         -1.18631220          0.37633165          1.41528958
     1         -4.39867696          1.01742476          4.13736978

 Electric dipole moment (dipole orientation):
 (Debye = 10**-18 statcoulomb cm , SI units = C m)
                  (au)            (Debye)         (10**-30 SI)
   Tot        0.790646D+00      0.200962D+01      0.670338D+01
   x          0.000000D+00      0.000000D+00      0.000000D+00
   y          0.000000D+00      0.000000D+00      0.000000D+00
   z          0.790646D+00      0.200962D+01      0.670338D+01

 Dipole polarizability, Alpha (dipole orientation).
 (esu units = cm**3 , SI units = C**2 m**2 J**-1)
 Alpha(0;0):
               (au)            (10**-24 esu)      (10**-40 SI)
   iso        0.276541D+02      0.409792D+01      0.455955D+01
   aniso      0.129740D+02      0.192256D+01      0.213913D+01
   xx         0.326974D+02      0.484525D+01      0.539107D+01
   yx        -0.256536D+01     -0.380148D+00     -0.422972D+00
   yy         0.203549D+02      0.301629D+01      0.335607D+01
   zx        -0.270821D+01     -0.401315D+00     -0.446523D+00
   zy         0.540478D+00      0.800906D-01      0.891129D-01
   zz         0.299100D+02      0.443221D+01      0.493150D+01

 ----------------------------------------------------------------------
 Unable to Open any file for archive entry.
 1\1\GINC-NODE2-152\Freq\RB3LYP\6-311++G(3df,3pd)\C1H3N1O1\RUTHM\26-Jan
 -2021\0\\#P Geom=AllCheck Guess=TCheck SCRF=Check GenChk RB3LYP/6-311+
 +G(3df,3pd) Freq\\title\\0,1\C,-2.3829851303,0.8301439529,0.001866892\
 N,-1.2709905057,0.241548876,-0.0366753377\O,-2.6600031424,2.1572221762
 ,0.0340802434\H,-3.30979986,0.2646762127,0.0137619126\H,-0.4724698207,
 0.8772071711,-0.0440799051\H,-1.8400629609,2.6674049865,0.0237469284\\
 Version=ES64L-G16RevC.01\State=1-A'\HF=-169.9417549\RMSD=3.401e-09\RMS
 F=5.472e-05\ZeroPoint=0.0457111\Thermal=0.0490861\ETot=-169.8926687\HT
 ot=-169.8917245\GTot=-169.9202994\Dipole=0.1764996,0.7706235,0.0104335
 \DipoleDeriv=0.9388545,-0.4605131,-0.0295331,-0.6159714,1.4601625,0.04
 12697,-0.032511,0.0374576,0.0957204,-0.8123722,0.4951466,0.0176229,0.3
 307903,-0.5812677,-0.0100418,0.0144746,-0.0140721,-0.4811136,-0.355818
 4,0.1690039,0.0044085,0.5315798,-1.3010426,-0.0320559,0.0113537,-0.023
 1651,-0.3087785,-0.0376289,-0.0334468,0.0032593,-0.0262884,0.0338413,-
 0.0010329,0.0033964,-0.0008573,0.1213152,0.1546779,-0.1324635,-0.00016
 4,-0.2138199,0.0556517,0.0014922,-0.0017224,-0.0005027,0.2515006,0.112
 287,-0.0377271,0.0044064,-0.0062903,0.3326547,0.0003687,0.0050086,0.00
 11396,0.3213558\Polar=31.8354128,-3.1971599,31.2695611,-0.3553134,0.29
 72783,19.8573435\Quadrupole=1.3513493,-0.9464557,-0.4048936,3.8009924,
 0.0298102,-0.103631\PG=CS [SG(C1H3N1O1)]\NImag=0\\0.95912917,-0.053315
 26,0.62507085,-0.02047987,0.01010883,0.16628579,-0.54928225,0.21110242
 ,0.01583680,0.84115843,0.15406506,-0.19477863,-0.00619965,-0.05744365,
 0.40447809,0.01474424,-0.00759828,-0.06885699,-0.02006657,0.00785968,0
 .06834162,-0.12712211,0.00086576,0.00181253,-0.00603712,0.06022086,0.0
 0219116,0.50176090,0.04107606,-0.27221870,-0.00518953,0.03867850,-0.05
 073882,-0.00261527,0.13696692,0.50887176,0.00258276,-0.00420352,-0.054
 02583,0.00177851,-0.00314351,0.03617373,-0.00884560,0.00573700,0.03436
 228,-0.24640286,-0.12639064,0.00236415,-0.03255657,-0.00699605,0.00068
 118,0.00578717,0.00303802,0.00004379,0.27406036,-0.12223075,-0.1223040
 6,0.00163636,0.01709573,0.01123600,-0.00021715,-0.02812903,-0.03280572
 ,-0.00003824,0.12728170,0.14807353,0.00244383,0.00173836,-0.05128502,0
 .00114267,0.00037361,0.00066689,-0.00055323,-0.00080250,0.00519776,-0.
 00359508,-0.00082148,0.02809377,-0.04164044,-0.03303363,0.00055479,-0.
 25546283,-0.15425527,0.00250484,0.00752766,-0.00206038,-0.00048177,-0.
 00294492,0.00427299,0.00046265,0.29368520,0.02859828,-0.00331337,-0.00
 089479,-0.21096861,-0.17730591,0.00240545,0.00149197,0.00533397,0.0002
 6690,0.00031859,0.00138504,-0.00022234,0.18142534,0.17435204,0.0017353
 7,0.00061651,0.00675858,0.00141848,0.00101476,-0.03282949,-0.00041372,
 0.00035401,-0.01049275,0.00038690,-0.00031931,0.01256893,-0.00314806,-
 0.00156073,0.02362823,0.00531849,0.00077134,-0.00008840,0.00218034,0.0
 0440904,-0.00005484,-0.38191649,-0.21769911,0.00492231,0.00205683,0.00
 170936,0.00009916,-0.00116467,-0.00086557,0.00002103,0.37352549,-0.048
 19339,-0.03245609,0.00053878,0.00153562,0.00710927,0.00016557,-0.17141
 648,-0.15844250,0.00138137,0.00274838,-0.00558479,-0.00026565,0.003650
 93,-0.00045177,-0.00010525,0.21167494,0.18982589,-0.00102633,-0.000661
 90,0.00112346,-0.00010988,0.00009511,-0.00349576,0.00580886,0.00251628
 ,-0.01121518,0.00011906,-0.00024017,0.00475767,0.00010754,0.00000550,0
 .00036649,-0.00489925,-0.00171483,0.00846332\\-0.00002232,0.00009506,0
 .00000237,0.00000226,-0.00012356,-0.00000242,-0.00006039,-0.00009558,-
 0.00000035,-0.00003166,-0.00000650,0.00000065,0.00004310,0.00007250,0.
 00000033,0.00006901,0.00005808,-0.00000058\\\@
 The archive entry for this job was punched.


 SCIENCE AND PEACE WILL TRIUMPH OVER IGNORANCE AND WAR

                          -- PASTEUR
 Job cpu time:       0 days  0 hours  5 minutes 56.4 seconds.
 Elapsed time:       0 days  0 hours  0 minutes 16.2 seconds.
 File lengths (MBytes):  RWF=     26 Int=      0 D2E=      0 Chk=      4 Scr=      1
 Normal termination of Gaussian 16 at Tue Jan 26 00:25:49 2021.
