 --invoking executable--
/home/orgChemistry/bin/cfour_v21/bin/xjoda


   *************************************************************************
         <<<     CCCCCC     CCCCCC   |||     CCCCCC     CCCCCC   >>>
       <<<      CCC        CCC       |||    CCC        CCC         >>>
      <<<      CCC        CCC        |||   CCC        CCC            >>>
    <<<        CCC        CCC        |||   CCC        CCC              >>>
      <<<      CCC        CCC        |||   CCC        CCC            >>>
       <<<      CCC        CCC       |||    CCC        CCC         >>>
         <<<     CCCCCC     CCCCCC   |||     CCCCCC     CCCCCC   >>>
   *************************************************************************

     ****************************************************************
     * CFOUR Coupled-Cluster techniques for Computational Chemistry *
     ****************************************************************
 

   Department of Chemistry                Institut fuer Physikalische Chemie
   University of Florida                  Universitaet Mainz
   Gainesville, FL 32611, USA             D-55099 Mainz, Germany

   Department of Chemistry                Fakultaet fuer Chemie und Biowiss.
   Johns Hopkins University               Karlsruher Institut fuer Technologie
   Baltimore, MD 21218, USA               D-76131 Karlsruhe, Germany

   Department of Chemistry                Department of Physical Chemistry
   Southern Methodist University          Eotvos Lorand University
   Dallas, TX 75275, USA                  H-1053 Budapest, Hungary

 
                       Version 2.1
 
                     node2-061                                         
                     Fri Jan 29 00:56:59 CET 2021                      
                     integer*8 version is running
 
********************************************************************************
*                          Input from ZMAT file                                *
********************************************************************************
title                                                                           
C                                                                               
N 1 R12                                                                         
H 1 R13 2 A213                                                                  
H 1 R14 2 A214 3 D3214                                                          
O 2 R25 1 A125 3 D3125                                                          
H 5 R56 2 A256 1 D1256                                                          
                                                                                
R12  =        1.279268939287131                                                 
R13  =        1.092477591074938                                                 
A213 =      123.139848996121486                                                 
R14  =        1.080869030809640                                                 
A214 =      116.975347208654739                                                 
D3214=      180.000000000000000                                                 
R25  =        1.385859399229842                                                 
A125 =      115.551758902278351                                                 
D3125=        0.000000000000000                                                 
R56  =        0.971191358229503                                                 
A256 =      107.591916484293577                                                 
D1256=        0.000000000000000                                                 
                                                                                
*CFOUR(CALC=CCSD(T),BASIS=cc-pVTZ,FROZEN_CORE=1                                 
       VIB=EXACT                                                                
       MEMORY_SIZE=5000,MEM_UNIT=MB,ABCDTYPE=AOBASIS,CC_PROG=ECC                
       MULTIPLICITY=1,CHARGE=0                                                  
       SCF_CONV=8,CC_CONV=10)                                                   
                                                                                
********************************************************************************
    -------------------------------------------------------------------
                    CFOUR Control Parameters 
    -------------------------------------------------------------------
        External           Internal           Value            Units
          Name               Name
    -------------------------------------------------------------------
       ABCDTYPE             IABCDT         AOBASIS     [  2]    ***   
       ANHARMONIC           IANHAR         OFF         [  0]    ***   
       ANH_ALGORIT          IANALG         STANDARD    [  0]    ***   
       ANH_DERIVAT          IANDER         SECOND      [  1]    ***   
       ANH_MODE             ANHMOD         VIBRATION   [  0]    ***   
       ANH_STEPSIZ          ICUBST             50000          x 10-6  
       ANH_SYMMETR          IANHSM         ABELIAN     [  0]    ***   
       AO_LADDERS           IAOLAD         SINGLEPASS  [  1]    ***   
       AV_SCF               IAVSCF         OFF         [  0]    ***   
       BASIS                IBASIS         PVTZ        [ 14]    ***   
       BOTHVECTORS          BOTHVC         OFF         [  0]    ***   
       BOX_POTENT           IPIAB          OFF         [  0]    ***   
       BREIT                IBREIT         OFF         [  0]    ***   
       BRUCK_CONV           IBRTOL          10D-  4             ***   
       BRUECKNER            IBRKNR         OFF         [  0]    ***   
       BUFFERSIZE           IBUFFS              4096            ***   
       CACHE_RECS           ICHREC             10               ***   
       CALCLEVEL            ICLLVL         CCSD(T)     [ 22]    ***   
       CCORBOPT             ICCORB         OFF         [  0]  x 0.01  
       CC_CONV              ICCCNV          10D- 10             ***   
       CC_EXPORDER          ICCEOR              5               ***   
       CC_EXTRAPOL          ICCEXT         DIIS        [  1]    ***   
       CC_GUESS             ICCGES         MP2         [  0]    ***   
       CC_MAXCYC            ICCCYC            100              cycles 
       CC_PROGRAM           ICCPRO         ECC         [  1]    ***   
       CHARGE               ICHRGE              0               ***   
       CHOLESKY             ICHOLE         OFF         [  0]    ***   
       CIS_CONV             ICISTL              5               ***   
       COMM_SIZE            IPSIZE            ***               ***   
       CONSTANT             ICONST         OLD         [  1]    ***   
       CONTINUUM            ICONTU         NONE        [  0]    ***   
       CONTRACTION          ICNTYP         GENERAL     [  1]    ***   
       COORDINATES          ICOORD         INTERNAL    [  0]    ***   
       CPHF_CONVER          ICPHFT          10D- 16             ***   
       CPHF_MAXCYC          ICPHFC             64              cycles 
       CUBIC                ICUBIC         OFF         [  0]    ***   
       CURVILINEAR          ICURVY         OFF         [  0]    ***   
       DBOC                 IDBOC          OFF         [  0]    ***   
       DCT                  IDCT           OFF         [  0]    ***   
       DERIV_LEV            IDRLVL         SECOND      [  2]    ***   
       DEVMEM_SIZE          IDVMEM         *********           MByte  
       DIAG_MRCC            IEOMST          10D-  0             ***   
       DIFF_TYPE            IDIFTY         RELAXED     [  0]    ***   
       DIRECT               IDIRCT         OFF         [  0]    ***   
       DROPMO               IDRPMO      NONE         
       ECP                  IECP           OFF         [  0]    ***   
       EIGENVECTOR          IVEC                1               ***   
       EL_ANHARM            IELANH         OFF         [  0]    ***   
       EOMFOLLOW            IEOMSR         ENERGY      [  0]    ***   
       EOMIP                IEOMIP         OFF         [  0]    ***   
       EOMLEVEL             HBARFM         SAME        [  0]    ***   
       EOM_MRCC             IMRCCE         NEW         [  1]    ***   
       EOM_NONIT            EOMNON         OFF         [  0]    ***   
       EOM_NSING            IEOMSI          10D-  0             ***   
       EOM_NSTATES          IMRCCD         DAVIDSON    [  0]    ***   
       EOM_NTRIP            IEOMTR          10D-  0             ***   
       EOM_ORDER            IEXORD         ENERGY      [  0]    ***   
       EOM_PROPSTA          IEOMST              0               ***   
       ESTATE_CONV          IEXTOL          10D-  5             ***   
       ESTATE_DIAG          IEXDIG         ITERATIVE   [  0]    ***   
       ESTATE_LOCK          IESLOC         ON          [  1]    ***   
       ESTATE_MAXC          IEXMXC             40               ***   
       ESTATE_PROP          IEXPRP         OFF         [  0]    ***   
       EVAL_HESS            IRECAL              0            # of cyc.
       EXCITATION           IEXCIT              0               ***   
       EXCITE               IEXCIT         NONE        [  0]    ***   
       EXTERN_POT           IEXPOT         OFF         [  0]    ***   
       FCGRADNEW            IFCGNW         OFF         [  0]    ***   
       FC_FIELD             IFINFC              0             x 10-6  
       FD_CALTYPE           IFDCAL         GRADONLY    [  0]    ***   
       FD_PROJECT           IFDPRJ         OFF         [  1]    ***   
       FD_STEPSIZE          IDISFD              0            10-4 bohr
       FD_USEGROUP          IFDGRP         FULL        [  0]    ***   
       FILE_RECSIZ          IFLREC              4096           words  
       FINITE_PERT          IFIPER              0             x 10-6  
       FIXGEOM              IFIXGM         OFF         [  0]    ***   
       FOCK                 IFOCK          AO          [  1]    ***   
       FREQ_ALGORI          IVIALG         STANDARD    [  0]    ***   
       FROZEN_CORE          IFROCO         ON          [  1]    ***   
       GAMMA_ABCD           IGABCD         DIRECT      [  1]    ***   
       GAMMA_ABCI           IGABCI         STORE       [  0]    ***   
       GENBAS_1             IGNBS1              0               ***   
       GENBAS_2             IGNBS2              0               ***   
       GENBAS_3             IGNBS3              0               ***   
       GENBAS_4             IGNBS4              0               ***   
       GEO_CONV             ICONTL              5              H/bohr 
       GEO_MAXCYC           IOPTCY             50               ***   
       GEO_MAXSTEP          IMXSTP            300            millibohr
       GEO_METHOD           INR            SINGLE_POINT[  5]    ***   
       GIAO                 IGIAO          OFF         [  1]    ***   
       GIMIC                IGIMIC         OFF         [  0]    ***   
       GRID                 IGRID          OFF         [  0]    ***   
       GRID_ALGO            IGALGO         SERIAL      [  0]    ***   
       GUESS                IGUESS         MOREAD      [  0]    ***   
       HBAR                 IHBAR          OFF         [  0]    ***   
       HESS_TYPE            IHESTP         SCF         [  0]    ***   
       HF2_FILE             IHF2Fl         USE         [  1]    ***   
       HFSTABILITY          ISTABL         OFF         [  0]    ***   
       INCORE               INCORE         OFF         [  0]    ***   
       INPUT_MRCC           IMRCC          ON          [  1]    ***   
       INTEGRALS            INTTYP         VMOL        [  1]    ***   
       JODA_PRINT           IJPRNT              0               ***   
       KEYWORD_OUT          IDMPKW         NO          [  0]    ***   
       LINDEP_TOL           ILINDP              8               ***   
       LINEQ_CONV           IZTACN          10D-  7           cycles  
       LINEQ_EXPOR          ILMAXD              5               ***   
       LINEQ_MAXCY          ILMAXC            100               ***   
       LINEQ_TYPE           ILTYPE         DIIS        [  1]    ***   
       LOCK_ORBOCC          ILOCOC         OFF         [  0]    ***   
       MEMORY_SIZE          IMEMSZ         625000000           words  
       MEM_UNIT             IMEMU          MB          [  2]    ***   
       MRCC                 IMRCCC         OFF         [  0]    ***   
       MULTIPLICTY          IMULTP              1               ***   
       NACOUPLING           IVCOUP         OFF         [  0]    ***   
       NEGEVAL              IDIE           ABORT       [  0]    ***   
       NEWNORM              INEWNO         OFF         [  0]    ***   
       NON-HF               INONHF         OFF         [  0]    ***   
       NTOP_TAMP            ITOPT2             15               ***   
       NUC_MODEL            INUCMO         POINT       [  0]    ***   
       OCCUPATION           IOCCU   ESTIMATED BY SCF 
       OPEN-SHELL           IOPEN          SPIN-ORBITAL[  0]    ***   
       OPTVIB               IOPTVB         OFF         [  0]    ***   
       ORBITALS             IORBTP         STANDARD    [  0]    ***   
       PARALLEL             IPARAL         ON          [  1]    ***   
       PARA_INT             IPINTS         ON          [  1]    ***   
       PARA_PRINT           IPPRIN              0               ***   
       PERT_ORB             IPTORB         CANONICAL   [  1]    ***   
       POINTS               IGRDFD              0               ***   
       PRINT                IPRNT               0               ***   
       PROPS                IPROPS         OFF         [  0]    ***   
       PROP_INTEGR          IINTYP         INTERNAL    [  0]    ***   
       PSI                  IPSI           OFF         [  0]    ***   
       QC_ALG               IQCALG         FLM         [  0]    ***   
       QC_LINALG            IQCLIN         TRIDIAG     [  2]    ***   
       QC_MAXCYC            IQCMAX          10D-100           cycles  
       QC_MAXSCFCY          IQCMSC          10D- 15           cycles  
       QC_RTRUST            IQCRTR          10D-  0           x 10-3  
       QC_SKIPSCF           IQCSKI         OFF         [  0]    ***   
       QC_START             IQCSTA          10D-  1             ***   
       QRHFGUESS            IQGUES         OFF         [  0]    ***   
       QUARTIC              IQUART         OFF         [  0]    ***   
       RAMAN_INT            IRAMIN         OFF         [  0]    ***   
       RAMAN_ORB            IRAMRE         UNRELAXED   [  0]    ***   
       RDO                  IRDOFM         ON          [  1]    ***   
       REDUCE_REPR          REDREP         Ir          [  0]    ***   
       REFERENCE            IREFNC         RHF         [  0]    ***   
       RELATIVIST           IRELAT         OFF         [  0]    ***   
       RELAX_DENS           IRDENS         ON          [  1]    ***   
       RESET_FLAGS          IRESET         OFF         [  0]    ***   
       RESTART_CC           ICCRES         OFF         [  0]    ***   
       ROT_EVEC             ROTVEC              0               ***   
       SAVE_INTS            ISVINT         OFF         [  0]    ***   
       SCALE_ON             ISTCRT              0               ***   
       SCF_CONV             ISCFCV          10D-  8             ***   
       SCF_DAMPING          IDAMP               0             x 10-3  
       SCF_EXPORDE          IRPPOR              6               ***   
       SCF_EXPSTAR          IRPPLS              8               ***   
       SCF_EXTRAPO          IRPP           ON          [  1]    ***   
       SCF_MAXCYC           ISCFCY            150              cycles 
       SCF_NOSTOP           ISCFST         OFF         [  0]    ***   
       SCF_PRINT            ISCFPR              0               ***   
       SCF_PROG             ISCFPR         SCF         [  0]    ***   
       SD_FIELD             IFINSD              0             x 10-6  
       SOPERT               IPERSO         OFF         [  0]    ***   
       SPHERICAL            IDFGHI         ON          [  1]    ***   
       SPINORBIT            ISOCAL         OFF         [  0]    ***   
       SPINROTATIO          ISRCON         OFF         [  0]    ***   
       SPIN_FLIP            ISPFLP         OFF         [  0]    ***   
       SPIN_ORBIT           ISPORB         OFF         [  0]    ***   
       SPIN_SCAL            ISCSMP         OFF         [  0]    ***   
       STEEPSCALE           ISTPSC              1000          x 10-3  
       SUBGROUP             ISUBGP         DEFAULT     [  0]    ***   
       SUBGRPAXIS           ISBXYZ         X           [  0]    ***   
       SYMMETRY             ISYM           ON          [  0]    ***   
       SYM_CHECK            ISYMCK         OVERRIDE    [  1]    ***   
       T3_EXTRAPOL          IT3EXT         OFF         [  0]    ***   
       T4_EXTRAPOL          IT4EXP         OFF         [  0]    ***   
       TAMP_SUM             IEVERY              5               ***   
       TESTSUITE            ITESTS         OFF         [  0]    ***   
       THERMOCH             ITHERM         ON          [  1]    ***   
       TOL_CHOLESK          ITOLCH          10D-  4             ***   
       TRANGRAD             IRESRM         OFF         [  0]    ***   
       TRANS_INV            ITRAIN         USE         [  0]    ***   
       TREAT_PERT           ITREAT         SIMULTANEOUS[  0]    ***   
       TRIP_ALGORI          ITRALG         NORMAL      [  0]    ***   
       UIJ_THRESHO          IUIJTH              1               ***   
       UNITS                IUNITS         ANGSTROM    [  0]    ***   
       UNOS                 IUNOS          OFF         [  0]    ***   
       UPDATE_HESS          IHUPDT         ON          [  1]    ***   
       VIBPHASE             ISETPH         STANDARD    [  0]    ***   
       VIBRATION            IVIB           ANALYTIC    [  1]    ***   
       VIB_ALGORIT          IGEALG         STANDARD    [  0]    ***   
       VNATORB              IVNORB         OFF         [  0]    ***   
       VTRAN                IVTRAN         PARTIAL     [  2]    ***   
       XFIELD               IXEFLD              0             x 10-6  
       XFORM_TOL            IXFTOL          10D- 11             ***   
       YFIELD               IYEFLD              0             x 10-6  
       ZFIELD               IZEFLD              0             x 10-6  
       ZSCALE_EXP           IZEXPS         OFF         [  0]    ***   
    -------------------------------------------------------------------
   6 entries found in Z-matrix 
   Job Title : title                                                                           
   There are 12 unique internal coordinates.
   Of these,  0 will be optimized.
   User supplied Z-matrix: 
--------------------------------------------------------------------------------
       SYMBOL    BOND      LENGTH    ANGLE     ANGLE     DIHED     ANGLE
                  TO      (ANGST)    WRT      (DEG)      WRT      (DEG)
--------------------------------------------------------------------------------
        C    
        N          1         R12  
        H          1         R13        2        A213 
        H          1         R14        2        A214       3        D3214
        O          2         R25        1        A125       3        D3125
        H          5         R56        2        A256       1        D1256
                  *Initial values for internal coordinates* 
                      Name             Value
                        R12             1.2792689393
                        R13             1.0924775911
                        A213          123.1398489961
                        R14             1.0808690308
                        A214          116.9753472087
                        D3214         180.0000000000
                        R25             1.3858593992
                        A125          115.5517589023
                        D3125           0.0000000000
                        R56             0.9711913582
                        A256          107.5919164843
                        D1256           0.0000000000
--------------------------------------------------------------------------------
   Rotational constants (in cm-1): 
          0.3379779953             0.4004649916             2.1660243423
   Rotational constants (in MHz): 
      10132.3268160395         12005.6400998156         64935.7852637853
********************************************************************************
   The full molecular point group is C s .
   The largest Abelian subgroup of the full molecular point group is C s .
   The computational point group is C s .
********************************************************************************
--------------------------------------------------------------------------------
   Analysis of internal coordinates specified by Z-matrix 
--------------------------------------------------------------------------------
   *The nuclear repulsion energy is   70.885185264287855 a.u.
   *There are   9 degrees of freedom within the tot. symm. molecular subspace.
   *Z-matrix requests optimization of   0 coordinates.
   *The optimization is constrained.
   *The following   9 parameters can have non-zero 
    derivatives within the totally symmetric subspace:
             A214 [ 5]  A213 [ 3]  A256 [11]  R13  [ 2]  R14  [ 4]  R56  [10]
             A125 [ 8]  R25  [ 7]  R12  [ 1]
   *The following   0 parameters are to be optimized:

   *The following coordinates must be varied in an  unconstrained optimization.
             A214 [ 5]  A213 [ 3]  A256 [11]  R13  [ 2]  R14  [ 4]  R56  [10]
             A125 [ 8]  R25  [ 7]  R12  [ 1]
--------------------------------------------------------------------------------


 ----------------------------------------------------------------
         Coordinates used in calculation (QCOMP) 
 ----------------------------------------------------------------
 Z-matrix   Atomic            Coordinates (in bohr)
  Symbol    Number           X              Y              Z
 ----------------------------------------------------------------
     C         6        -2.16753809     0.45544031    -0.00000000
     N         7        -0.22079417    -0.97785720     0.00000000
     H         1        -2.05148070     2.51665946    -0.00000000
     H         1        -3.99289682    -0.46110932     0.00000000
     O         8         2.08971056     0.25509872    -0.00000000
     H         1         1.75545066     2.05968877    -0.00000000
 ----------------------------------------------------------------
 
   Interatomic distance matrix (Angstroms) 
 
                 C             N             H             H             O    
                [ 1]        [ 2]        [ 3]        [ 4]        [ 5]
  C    [ 1]     0.00000
  N    [ 2]     1.27927     0.00000
  H    [ 3]     1.09248     2.08761     0.00000
  H    [ 4]     1.08087     2.01475     1.88109     0.00000
  O    [ 5]     2.25533     1.38586     2.49692     3.24101     0.00000
  H    [ 6]     2.24283     1.91765     2.02900     3.32153     0.97119
 
                 H    
                [ 6]
  H    [ 6]     0.00000
 rotcon2
   Rotational constants (in cm-1): 
          2.1660243423             0.4004649916             0.3379779953
   Rotational constants (in MHz): 
      64935.7852637853         12005.6400998156         10132.3268160395
  There are   3 frozen-core orbitals.
  There are  132 basis functions.
 @CHECKOUT-I, Total execution time (CPU/WALL):        0.11/       0.96 seconds.
--executable xjoda finished with status     0 in        3.14 seconds (walltime).
 --invoking executable--
/home/orgChemistry/bin/cfour_v21/bin/xvmol
 SERIAL VERSION OF MOLECULE STARTED
********************************************************************************
                    INPUT FROM MOL FILE
********************************************************************************
INTGRL        1    0    1    0    0    0    0    0    0                         
         *** CFOUR Program System (Release V0.1) ***                            
title                                                                           
    6    1 Z          0.10E-08              0    0                              
   9999.00      3.00                                                            
          6.00000000    1    4    1    1    1    1                              
C #1  -2.167538090143405   0.455440313807108  -0.000000000000000                
   10    4                                                                      
   8236.00000000000       5.310000000000000E-004 -1.130000000000000E-004        
  0.000000000000000E+000  0.000000000000000E+000                                
   1235.00000000000       4.108000000000000E-003 -8.780000000000000E-004        
  0.000000000000000E+000  0.000000000000000E+000                                
   280.800000000000       2.108700000000000E-002 -4.540000000000000E-003        
  0.000000000000000E+000  0.000000000000000E+000                                
   79.2700000000000       8.185300000000000E-002 -1.813300000000000E-002        
  0.000000000000000E+000  0.000000000000000E+000                                
   25.5900000000000       0.234817000000000      -5.576000000000000E-002        
  0.000000000000000E+000  0.000000000000000E+000                                
   8.99700000000000       0.434401000000000      -0.126895000000000             
  0.000000000000000E+000  0.000000000000000E+000                                
   3.31900000000000       0.346129000000000      -0.170352000000000             
  0.000000000000000E+000  0.000000000000000E+000                                
  0.905900000000000       3.937800000000000E-002  0.140382000000000             
   1.00000000000000       0.000000000000000E+000                                
  0.364300000000000      -8.983000000000000E-003  0.598684000000000             
  0.000000000000000E+000  0.000000000000000E+000                                
  0.128500000000000       2.385000000000000E-003  0.395389000000000             
  0.000000000000000E+000   1.00000000000000                                     
    5    3                                                                      
   18.7100000000000       1.403100000000000E-002  0.000000000000000E+000        
  0.000000000000000E+000                                                        
   4.13300000000000       8.686600000000000E-002  0.000000000000000E+000        
  0.000000000000000E+000                                                        
   1.20000000000000       0.290216000000000       0.000000000000000E+000        
  0.000000000000000E+000                                                        
  0.382700000000000       0.501008000000000        1.00000000000000             
  0.000000000000000E+000                                                        
  0.120900000000000       0.343406000000000       0.000000000000000E+000        
   1.00000000000000                                                             
    2    2                                                                      
   1.09700000000000        1.00000000000000       0.000000000000000E+000        
  0.318000000000000       0.000000000000000E+000   1.00000000000000             
    1    1                                                                      
  0.761000000000000        1.00000000000000                                     
          7.00000000    1    4    1    1    1    1                              
N #2  -0.220794167221611  -0.977857200625680   0.000000000000001                
   10    4                                                                      
   11420.0000000000       5.230000000000000E-004 -1.150000000000000E-004        
  0.000000000000000E+000  0.000000000000000E+000                                
   1712.00000000000       4.045000000000000E-003 -8.950000000000000E-004        
  0.000000000000000E+000  0.000000000000000E+000                                
   389.300000000000       2.077500000000000E-002 -4.624000000000000E-003        
  0.000000000000000E+000  0.000000000000000E+000                                
   110.000000000000       8.072699999999999E-002 -1.852800000000000E-002        
  0.000000000000000E+000  0.000000000000000E+000                                
   35.5700000000000       0.233074000000000      -5.733900000000000E-002        
  0.000000000000000E+000  0.000000000000000E+000                                
   12.5400000000000       0.433501000000000      -0.132076000000000             
  0.000000000000000E+000  0.000000000000000E+000                                
   4.64400000000000       0.347472000000000      -0.172510000000000             
  0.000000000000000E+000  0.000000000000000E+000                                
   1.29300000000000       4.126200000000000E-002  0.151814000000000             
   1.00000000000000       0.000000000000000E+000                                
  0.511800000000000      -8.508000000000000E-003  0.599944000000000             
  0.000000000000000E+000  0.000000000000000E+000                                
  0.178700000000000       2.384000000000000E-003  0.387462000000000             
  0.000000000000000E+000   1.00000000000000                                     
    5    3                                                                      
   26.6300000000000       1.467000000000000E-002  0.000000000000000E+000        
  0.000000000000000E+000                                                        
   5.94800000000000       9.176400000000000E-002  0.000000000000000E+000        
  0.000000000000000E+000                                                        
   1.74200000000000       0.298683000000000       0.000000000000000E+000        
  0.000000000000000E+000                                                        
  0.555000000000000       0.498487000000000        1.00000000000000             
  0.000000000000000E+000                                                        
  0.172500000000000       0.337023000000000       0.000000000000000E+000        
   1.00000000000000                                                             
    2    2                                                                      
   1.65400000000000        1.00000000000000       0.000000000000000E+000        
  0.469000000000000       0.000000000000000E+000   1.00000000000000             
    1    1                                                                      
   1.09300000000000        1.00000000000000                                     
          1.00000000    1    3    1    1    1                                   
H #3  -2.051480700480021   2.516659458164812  -0.000000000000002                
    5    3                                                                      
   33.8700000000000       6.068000000000000E-003  0.000000000000000E+000        
  0.000000000000000E+000                                                        
   5.09500000000000       4.530800000000000E-002  0.000000000000000E+000        
  0.000000000000000E+000                                                        
   1.15900000000000       0.202822000000000       0.000000000000000E+000        
  0.000000000000000E+000                                                        
  0.325800000000000       0.503903000000000        1.00000000000000             
  0.000000000000000E+000                                                        
  0.102700000000000       0.383421000000000       0.000000000000000E+000        
   1.00000000000000                                                             
    2    2                                                                      
   1.40700000000000        1.00000000000000       0.000000000000000E+000        
  0.388000000000000       0.000000000000000E+000   1.00000000000000             
    1    1                                                                      
   1.05700000000000        1.00000000000000                                     
          1.00000000    1    3    1    1    1                                   
H #4  -3.992896819421474  -0.461109323363900   0.000000000000001                
    5    3                                                                      
   33.8700000000000       6.068000000000000E-003  0.000000000000000E+000        
  0.000000000000000E+000                                                        
   5.09500000000000       4.530800000000000E-002  0.000000000000000E+000        
  0.000000000000000E+000                                                        
   1.15900000000000       0.202822000000000       0.000000000000000E+000        
  0.000000000000000E+000                                                        
  0.325800000000000       0.503903000000000        1.00000000000000             
  0.000000000000000E+000                                                        
  0.102700000000000       0.383421000000000       0.000000000000000E+000        
   1.00000000000000                                                             
    2    2                                                                      
   1.40700000000000        1.00000000000000       0.000000000000000E+000        
  0.388000000000000       0.000000000000000E+000   1.00000000000000             
    1    1                                                                      
   1.05700000000000        1.00000000000000                                     
          8.00000000    1    4    1    1    1    1                              
O #5   2.089710559871743   0.255098715978026  -0.000000000000000                
   10    4                                                                      
   15330.0000000000       5.080000000000000E-004 -1.150000000000000E-004        
  0.000000000000000E+000  0.000000000000000E+000                                
   2299.00000000000       3.929000000000000E-003 -8.950000000000000E-004        
  0.000000000000000E+000  0.000000000000000E+000                                
   522.400000000000       2.024300000000000E-002 -4.636000000000000E-003        
  0.000000000000000E+000  0.000000000000000E+000                                
   147.300000000000       7.918100000000000E-002 -1.872400000000000E-002        
  0.000000000000000E+000  0.000000000000000E+000                                
   47.5500000000000       0.230687000000000      -5.846300000000000E-002        
  0.000000000000000E+000  0.000000000000000E+000                                
   16.7600000000000       0.433118000000000      -0.136463000000000             
  0.000000000000000E+000  0.000000000000000E+000                                
   6.20700000000000       0.350260000000000      -0.175740000000000             
  0.000000000000000E+000  0.000000000000000E+000                                
   1.75200000000000       4.272800000000000E-002  0.160934000000000             
   1.00000000000000       0.000000000000000E+000                                
  0.688200000000000      -8.154000000000000E-003  0.603418000000000             
  0.000000000000000E+000  0.000000000000000E+000                                
  0.238400000000000       2.381000000000000E-003  0.378765000000000             
  0.000000000000000E+000   1.00000000000000                                     
    5    3                                                                      
   34.4600000000000       1.592800000000000E-002  0.000000000000000E+000        
  0.000000000000000E+000                                                        
   7.74900000000000       9.974000000000000E-002  0.000000000000000E+000        
  0.000000000000000E+000                                                        
   2.28000000000000       0.310492000000000       0.000000000000000E+000        
  0.000000000000000E+000                                                        
  0.715600000000000       0.491026000000000        1.00000000000000             
  0.000000000000000E+000                                                        
  0.214000000000000       0.336337000000000       0.000000000000000E+000        
   1.00000000000000                                                             
    2    2                                                                      
   2.31400000000000        1.00000000000000       0.000000000000000E+000        
  0.645000000000000       0.000000000000000E+000   1.00000000000000             
    1    1                                                                      
   1.42800000000000        1.00000000000000                                     
          1.00000000    1    3    1    1    1                                   
H #6   1.755450660664458   2.059688770505216  -0.000000000000002                
    5    3                                                                      
   33.8700000000000       6.068000000000000E-003  0.000000000000000E+000        
  0.000000000000000E+000                                                        
   5.09500000000000       4.530800000000000E-002  0.000000000000000E+000        
  0.000000000000000E+000                                                        
   1.15900000000000       0.202822000000000       0.000000000000000E+000        
  0.000000000000000E+000                                                        
  0.325800000000000       0.503903000000000        1.00000000000000             
  0.000000000000000E+000                                                        
  0.102700000000000       0.383421000000000       0.000000000000000E+000        
   1.00000000000000                                                             
    2    2                                                                      
   1.40700000000000        1.00000000000000       0.000000000000000E+000        
  0.388000000000000       0.000000000000000E+000   1.00000000000000             
    1    1                                                                      
   1.05700000000000        1.00000000000000                                     
FINISH                                                                          
 
********************************************************************************
 ONE- AND TWO-ELECTRON INTEGRALS OVER SYMMETRY-ADAPTED AOS ARE CALCULATED.

  SPHERICAL HARMONICS ARE USED.
  
  INTEGRALS LESS THAN  0.10E-13 ARE NEGLECTED.

  NUCLEAR REPULSION ENERGY :   70.8851852643 A.U.
  @MOLECU-I, ONE ELECTRON INTEGRALS (CPU/WALL):        0.04/       0.05 SECONDS.
  @TWOEL-I,    8699512 INTEGRALS OF SYMMETRY TYPE  I I I I
  @TWOEL-I,    7030847 INTEGRALS OF SYMMETRY TYPE  I J I J
  @TWOEL-I,    3645151 INTEGRALS OF SYMMETRY TYPE  I I J J
  @TWOEL-I, TOTAL NUMBER OF 2-E INTEGRALS   19375510.
  @MOLECU-I, TWO ELECTRON INTEGRALS (CPU/WALL):       10.81/      11.38 SECONDS.
 @CHECKOUT-I, Total execution time (CPU/WALL):       10.87/      11.47 seconds.

Running with 24 threads/proc

--executable xvmol finished with status     0 in       13.76 seconds (walltime).
 --invoking executable--
/home/orgChemistry/bin/cfour_v21/bin/xvmol2ja
 @GETMEM-I,  Allocated    4768 MB of main memory.
 @CHECKOUT-I, Total execution time (CPU/WALL):        0.01/       0.02 seconds.
--executable xvmol2ja finished with status     0 in        0.11 seconds (walltime).
 --invoking executable--
/home/orgChemistry/bin/cfour_v21/bin/xvscf
  There are  132 functions in the AO basis.

  There are 2 irreducible representations.

       Irrep        # of functions
         1                 90
         2                 42


  Parameters for SCF calculation: 
        SCF reference function:  RHF  
  Maximum number of iterations:  150
     Full symmetry point group: C s 
     Computational point group: C s 
        Initial density matrix: MOREAD                 
     SCF convergence tolerance: 10**(- 8)
  DIIS convergence acceleration:  ON
          Latest start for DIIS:   8
                     DIIS order:   6

  Memory information:     834884 words required.
  Fock matrices are constructed from AO integral file.
 @GETMEM-I,  Allocated       6 MB of main memory.
  Initialization and symmetry analysis required      0.002 seconds.

  @INITGES-I, Occupancies from core Hamiltonian:

          Alpha population by irrep:  10    2
           Beta population by irrep:  10    2


 total no. of electrons in initial guess :  0.000000000000000E+000
  --------------------------------------------------------------------
  Iteration         Total Energy            Largest Density Difference
  --------------------------------------------------------------------
       0            70.885185264287870              0.0000000000D+00
   current occupation vector 
    10  2
    10  2
       1          -132.085397239213648              0.1373011449D+02
   current occupation vector 
    10  2
    10  2
       2          -127.836595024598736              0.6962823254D+02
   current occupation vector 
    11  1
    11  1
       3          -143.063574501492269              0.6963063096D+02
   current occupation vector 
    10  2
    10  2
       4          -120.748134332993189              0.7593918553D+01
   current occupation vector 
     9  3
     9  3
       5          -140.330287763584352              0.7748167734D+01
   current occupation vector 
    10  2
    10  2
       6          -119.798262305753994              0.8501293410D+01
   current occupation vector 
     9  3
     9  3
       7          -137.894624453732206              0.8501275579D+01
   current occupation vector 
    10  2
    10  2
       8          -120.951537217466026              0.8266567588D+01
   current occupation vector 
    10  2
    10  2
       9          -157.270032601941978              0.8258875025D+01
   current occupation vector 
    10  2
    10  2
      10          -168.659868889688653              0.2045412437D+01
   current occupation vector 
    10  2
    10  2
      11          -168.803906346708914              0.3937506034D+00
   current occupation vector 
    10  2
    10  2
      12          -168.882994900566644              0.2588412663D+00
   current occupation vector 
    10  2
    10  2
      13          -168.899430010447816              0.1280375478D+00
   current occupation vector 
    10  2
    10  2
      14          -168.900533394364004              0.2533782605D-01
   current occupation vector 
    10  2
    10  2
      15          -168.900864163238964              0.1518966305D-01
   current occupation vector 
    10  2
    10  2
      16          -168.900940847114157              0.1264030932D-01
   current occupation vector 
    10  2
    10  2
      17          -168.900946542392262              0.3316354895D-02
   current occupation vector 
    10  2
    10  2
      18          -168.900947001861482              0.9526675407D-03
   current occupation vector 
    10  2
    10  2
      19          -168.900947025594007              0.1968116535D-03
   current occupation vector 
    10  2
    10  2
      20          -168.900947026227186              0.2999656571D-04
   current occupation vector 
    10  2
    10  2
      21          -168.900947026277436              0.6990434131D-05
   current occupation vector 
    10  2
    10  2
      22          -168.900947026285962              0.3038807676D-05
   current occupation vector 
    10  2
    10  2
      23          -168.900947026288748              0.1285539498D-05
   current occupation vector 
    10  2
    10  2
      24          -168.900947026288350              0.3308129894D-06
   current occupation vector 
    10  2
    10  2
      25          -168.900947026286815              0.1450635756D-06
   current occupation vector 
    10  2
    10  2
      26          -168.900947026287724              0.3917050928D-07
   current occupation vector 
    10  2
    10  2
      27          -168.900947026288407              0.1359053425D-07
   current occupation vector 
    10  2
    10  2

  SCF has converged.

 Density matrix saved to file den.dat
 total electron number:   24.0000000000003     
     E(SCF)=      -168.900947026288122              0.4023521738D-08

  Eigenvector printing suppressed.

 @PUTMOS-I, Writing converged MOs to NEWMOS. 
 @PUTMOS-I, Symmetry   1 Full Blocks 22 Partial Blocksize   2
 @PUTMOS-I, Symmetry   2 Full Blocks 10 Partial Blocksize   2
 @PUTFOCK-I, Writing converged Fock matrix to NEWFOCK. 
 @PUTFOCK-I, Symmetry   1 Full Blocks 22 Partial Blocksize   2
 @PUTFOCK-I, Symmetry   2 Full Blocks 10 Partial Blocksize   2


 
  ORBITAL EIGENVALUES (ALPHA)  (1H = 27.2113834 eV)

       MO #        E(hartree)               E(eV)           FULLSYM    COMPSYM
       ----   --------------------   --------------------   -------   ---------
    1     1         -20.6078078014        -560.7669591169     A'        A'  (1)
    2     2         -15.6467770280        -425.7704486828     A'        A'  (1)
    3     3         -11.2841418369        -307.0571098643     A'        A'  (1)
    4     4          -1.4393124674         -39.1656833827     A'        A'  (1)
    5     5          -1.1551016243         -31.4319131643     A'        A'  (1)
    6     6          -0.8596797361         -23.3930749012     A'        A'  (1)
    7     7          -0.7205252251         -19.6064881489     A'        A'  (1)
    8     8          -0.6825887801         -18.5741849991     A'        A'  (1)
    9    91          -0.6017987542         -16.3757766314     A''       A'' (2)
   10     9          -0.5574733591         -15.1696213093     A'        A'  (1)
   11    10          -0.4717870444         -12.8379781492     A'        A'  (1)
   12    92          -0.4096301147         -11.1466021036     A''       A'' (2)
  +++++++++++++++++++++++++++++++++++++++++++++++++++++++++++++++++++++++++++++
   13    93           0.1353198776           3.6822410717     A''       A'' (2)
   14    11           0.1361822762           3.7057081296     A'        A'  (1)
   15    12           0.1782477589           4.8503681068     A'        A'  (1)
   16    13           0.2014634994           5.4821005242     A'        A'  (1)
   17    14           0.2746644182           7.4739987888     A'        A'  (1)
   18    15           0.3872817076          10.5384710302     A'        A'  (1)
   19    16           0.4422289362          12.0336611334     A'        A'  (1)
   20    94           0.4544469969          12.3661314672     A''       A'' (2)
   21    17           0.4811126650          13.0917411859     A'        A'  (1)
   22    18           0.5696316574          15.5004654252     A'        A'  (1)
   23    19           0.6001725796          16.3315261705     A'        A'  (1)
   24    20           0.6154659192          16.7476790973     A'        A'  (1)
   25    21           0.6475837643          17.6216500936     A'        A'  (1)
   26    95           0.6718316208          18.2814678136     A''       A'' (2)
   27    22           0.6856239354          18.6567757741     A'        A'  (1)
   28    96           0.7246780223          19.7194915054     A''       A'' (2)
   29    23           0.7549261128          20.5425838931     A'        A'  (1)
   30    24           0.8084455807          21.9989226547     A'        A'  (1)
   31    97           0.8301192093          22.5886920720     A''       A'' (2)
   32    25           0.8858142185          24.1042303198     A'        A'  (1)
   33    98           0.8953427301          24.3635143031     A''       A'' (2)
   34    26           0.9646933862          26.2506415956     A'        A'  (1)
   35    99           0.9792671167          26.6472129639     A''       A'' (2)
   36    27           1.0512645362          28.6063623506     A'        A'  (1)
   37    28           1.0732734626          29.2052556851     A'        A'  (1)
   38   100           1.1424462183          31.0875420598     A''       A'' (2)
   39   101           1.2133529581          33.0170125432     A''       A'' (2)
   40    29           1.2204262312          33.2094860880     A'        A'  (1)
   41    30           1.2695141523          34.5452363300     A'        A'  (1)
   42    31           1.3514306149          36.7742965997     A'        A'  (1)
   43    32           1.4241991595          38.7544293684     A'        A'  (1)
   44    33           1.5359610597          41.7956252822     A'        A'  (1)
   45   102           1.5469998589          42.0960062808     A''       A'' (2)
   46    34           1.6041141015          43.6501638335     A'        A'  (1)
   47    35           1.6326923349          44.4278170995     A'        A'  (1)
   48   103           1.6721588831          45.5017564740     A''       A'' (2)
   49    36           1.6757454692          45.5993524444     A'        A'  (1)
   50    37           1.8824122352          51.2230410496     A'        A'  (1)
   51    38           1.9636820569          53.4345053257     A'        A'  (1)
   52    39           2.0387014842          55.4758877238     A'        A'  (1)
   53   104           2.0943541709          56.9902743189     A''       A'' (2)
   54    40           2.2362898352          60.8525400985     A'        A'  (1)
   55   105           2.2371809085          60.8767874366     A''       A'' (2)
   56    41           2.3388790387          63.6441342484     A'        A'  (1)
   57   106           2.3955342218          65.1858001583     A''       A'' (2)
   58    42           2.5205538130          68.5877561856     A'        A'  (1)
   59    43           2.5453897146          69.2635754272     A'        A'  (1)
   60    44           2.6893382145          73.1806132478     A'        A'  (1)
   61    45           2.7940618127          76.0302872279     A'        A'  (1)
   62    46           2.8603887414          77.8351347147     A'        A'  (1)
   63   107           2.9373186815          79.9285048100     A''       A'' (2)
   64   108           2.9830927155          81.1740795992     A''       A'' (2)
   65    47           2.9929113808          81.4412590663     A'        A'  (1)
   66    48           3.1684488336          86.2178759932     A'        A'  (1)
   67   109           3.2103943864          87.3592725122     A''       A'' (2)
   68    49           3.2407711465          88.1858661783     A'        A'  (1)
   69   110           3.2444659261          88.2864062429     A''       A'' (2)
   70   111           3.2699990829          88.9811987621     A''       A'' (2)
   71    50           3.3104721867          90.0825279083     A'        A'  (1)
   72    51           3.3959920957          92.4096429395     A'        A'  (1)
   73   112           3.5068942438          95.4274438106     A''       A'' (2)
   74    52           3.5640829200          96.9836268058     A'        A'  (1)
   75    53           3.5892728971          97.6690809291     A'        A'  (1)
   76   113           3.6198114516          98.5000772459     A''       A'' (2)
   77   114           3.6738151164          99.9695916733     A''       A'' (2)
   78    54           3.6803808622         100.1482546985     A'        A'  (1)
   79    55           3.7001421328         100.6859862109     A'        A'  (1)
   80    56           3.7979305946         103.3469455363     A'        A'  (1)
   81   115           3.8186475486         103.9106825139     A''       A'' (2)
   82   116           3.9787402068         108.2670252163     A''       A'' (2)
   83   117           4.0025036623         108.9136617160     A''       A'' (2)
   84    57           4.0163092637         109.2893312271     A'        A'  (1)
   85    58           4.0233543170         109.4810368749     A'        A'  (1)
   86    59           4.0758900457         110.9106067311     A'        A'  (1)
   87   118           4.1209649783         112.1371580013     A''       A'' (2)
   88    60           4.1375561467         112.5886266475     A'        A'  (1)
   89    61           4.1813971175         113.7816001125     A'        A'  (1)
   90    62           4.2090416430         114.5338458952     A'        A'  (1)
   91   119           4.2248579477         114.9642294245     A''       A'' (2)
   92    63           4.3063835444         117.1826536937     A'        A'  (1)
   93   120           4.3140198365         117.3904477675     A''       A'' (2)
   94    64           4.4611881172         121.3951002765     A'        A'  (1)
   95    65           4.5804086927         124.6392570669     A'        A'  (1)
   96    66           4.5933270588         124.9907836797     A'        A'  (1)
   97   121           4.6087790637         125.4112541079     A''       A'' (2)
   98   122           4.7357870070         128.8673159481     A''       A'' (2)
   99    67           4.9310763600         134.1814094061     A'        A'  (1)
  100   123           5.0248158232         136.7321898802     A''       A'' (2)
  101    68           5.0310962236         136.9030882638     A'        A'  (1)
  102    69           5.0949469824         138.6405557401     A'        A'  (1)
  103   124           5.1583331097         140.3653799533     A''       A'' (2)
  104    70           5.1666054766         140.5904824990     A'        A'  (1)
  105   125           5.2443667359         142.7064739418     A''       A'' (2)
  106    71           5.2668238588         143.3175633226     A'        A'  (1)
  107    72           5.2722120435         143.4641832819     A'        A'  (1)
  108   126           5.3590362182         145.8267891870     A''       A'' (2)
  109    73           5.3656411986         146.0065198414     A'        A'  (1)
  110    74           5.4864594830         149.2941524999     A'        A'  (1)
  111    75           5.5159981644         150.0979408861     A'        A'  (1)
  112    76           5.5946420145         152.2379488421     A'        A'  (1)
  113   127           5.6747724017         154.4184075307     A''       A'' (2)
  114    77           5.8748642550         159.8631836655     A'        A'  (1)
  115   128           5.9428134161         161.7121743404     A''       A'' (2)
  116    78           5.9548643390         162.0400966242     A'        A'  (1)
  117    79           6.0772453656         165.3702536586     A'        A'  (1)
  118    80           6.3099273259         171.7018516904     A'        A'  (1)
  119   129           6.4066016308         174.3324932658     A''       A'' (2)
  120    81           6.6560688978         181.1208427147     A'        A'  (1)
  121   130           6.8852896343         187.3582560576     A''       A'' (2)
  122    82           6.9277137574         188.5126751380     A'        A'  (1)
  123   131           7.0511238452         191.8708343520     A''       A'' (2)
  124    83           7.1453284605         194.4342722576     A'        A'  (1)
  125   132           7.2317466350         196.7858303358     A''       A'' (2)
  126    84           7.2556939616         197.4374702215     A'        A'  (1)
  127    85           7.5652884599         205.8619648150     A'        A'  (1)
  128    86           7.6833261233         209.0739329279     A'        A'  (1)
  129    87           7.8615862515         213.9246376227     A'        A'  (1)
  130    88          10.4793201633         285.1567987339     A'        A'  (1)
  131    89          12.0282055607         327.3041131261     A'        A'  (1)
  132    90          13.7809243463         374.9980159949     A'        A'  (1)


  VSCF finished.

 @CHECKOUT-I, Total execution time (CPU/WALL):        6.19/      10.97 seconds.
--executable xvscf finished with status     0 in       11.13 seconds (walltime).
 --invoking executable--
/home/orgChemistry/bin/cfour_v21/bin/xvtran
 @GETMEM-I,  Allocated    4768 MB of main memory.
  Partial RHF integral transformation
  Frozen-core orbitals requested within analytic derivative calculation
  Transformation of IIII integrals :
  1 pass through the AO integral file was required.
     8699512 AO integrals were read.
     3207686 MO integrals were written to HF2.
  Transformation of IIJJ integrals :
  1 pass through the AO integral file was required.
     3645151 AO integrals were read.
     1040985 MO integrals were written to HF2.
  Transformation of IJIJ integrals :
  1 pass through the AO integral file was required.
     7030847 AO integrals were read.
     2024490 MO integrals were written to HF2.
  Summary of active molecular orbitals: 
------------------------------------------------------------------------
 
  Index      Eigenvalue    Symmetry    Index      Eigenvalue    Symmetry
------------------------------------------------------------------------
     1       -20.6078078        1        67         4.5804087        1
     2       -15.6467770        1        68         4.5933271        1
     3       -11.2841418        1        69         4.9310764        1
     4        -1.4393125        1        70         5.0310962        1
     5        -1.1551016        1        71         5.0949470        1
     6        -0.8596797        1        72         5.1666055        1
     7        -0.7205252        1        73         5.2668239        1
     8        -0.6825888        1        74         5.2722120        1
     9        -0.5574734        1        75         5.3656412        1
    10        -0.4717870        1        76         5.4864595        1
    11        -0.6017988        2        77         5.5159982        1
    12        -0.4096301        2        78         5.5946420        1
    13         0.1361823        1        79         5.8748643        1
    14         0.1782478        1        80         5.9548643        1
    15         0.2014635        1        81         6.0772454        1
    16         0.2746644        1        82         6.3099273        1
    17         0.3872817        1        83         6.6560689        1
    18         0.4422289        1        84         6.9277138        1
    19         0.4811127        1        85         7.1453285        1
    20         0.5696317        1        86         7.2556940        1
    21         0.6001726        1        87         7.5652885        1
    22         0.6154659        1        88         7.6833261        1
    23         0.6475838        1        89         7.8615863        1
    24         0.6856239        1        90        10.4793202        1
    25         0.7549261        1        91        12.0282056        1
    26         0.8084456        1        92        13.7809243        1
    27         0.8858142        1        93         0.1353199        2
    28         0.9646934        1        94         0.4544470        2
    29         1.0512645        1        95         0.6718316        2
    30         1.0732735        1        96         0.7246780        2
    31         1.2204262        1        97         0.8301192        2
    32         1.2695142        1        98         0.8953427        2
    33         1.3514306        1        99         0.9792671        2
    34         1.4241992        1       100         1.1424462        2
    35         1.5359611        1       101         1.2133530        2
    36         1.6041141        1       102         1.5469999        2
    37         1.6326923        1       103         1.6721589        2
    38         1.6757455        1       104         2.0943542        2
    39         1.8824122        1       105         2.2371809        2
    40         1.9636821        1       106         2.3955342        2
    41         2.0387015        1       107         2.9373187        2
    42         2.2362898        1       108         2.9830927        2
    43         2.3388790        1       109         3.2103944        2
    44         2.5205538        1       110         3.2444659        2
    45         2.5453897        1       111         3.2699991        2
    46         2.6893382        1       112         3.5068942        2
    47         2.7940618        1       113         3.6198115        2
    48         2.8603887        1       114         3.6738151        2
    49         2.9929114        1       115         3.8186475        2
    50         3.1684488        1       116         3.9787402        2
    51         3.2407711        1       117         4.0025037        2
    52         3.3104722        1       118         4.1209650        2
    53         3.3959921        1       119         4.2248579        2
    54         3.5640829        1       120         4.3140198        2
    55         3.5892729        1       121         4.6087791        2
    56         3.6803809        1       122         4.7357870        2
    57         3.7001421        1       123         5.0248158        2
    58         3.7979306        1       124         5.1583331        2
    59         4.0163093        1       125         5.2443667        2
    60         4.0233543        1       126         5.3590362        2
    61         4.0758900        1       127         5.6747724        2
    62         4.1375561        1       128         5.9428134        2
    63         4.1813971        1       129         6.4066016        2
    64         4.2090416        1       130         6.8852896        2
    65         4.3063835        1       131         7.0511238        2
    66         4.4611881        1       132         7.2317466        2
------------------------------------------------------------------------
  -20.6078078013807       -15.6467770279836       -11.2841418369149     
  -1.43931246739591       -1.15510162428350      -0.859679736134183     
 -0.720525225076850      -0.682588780074231      -0.557473359081798     
 -0.471787044431888      -0.601798754244156      -0.409630114711610     
  0.136182276187249       0.178247758871009       0.201463499433302     
  0.274664418158243       0.387281707633718       0.442228936197678     
  0.481112665000865       0.569631657361761       0.600172579629301     
  0.615465919210344       0.647583764287246       0.685623935390882     
  0.754926112763093       0.808445580708865       0.885814218463094     
  0.964693386210313        1.05126453624544        1.07327346264707     
   1.22042623117659        1.26951415230242        1.35143061486766     
   1.42419915954616        1.53596105967300        1.60411410150804     
   1.63269233491228        1.67574546924239        1.88241223522728     
   1.96368205688943        2.03870148416664        2.23628983517760     
   2.33887903870352        2.52055381298811        2.54538971463087     
   2.68933821452908        2.79406181267156        2.86038874137983     
   2.99291138084269        3.16844883355617        3.24077114646991     
   3.31047218673553        3.39599209570282        3.56408292000888     
   3.58927289705954        3.68038086216795        3.70014213282998     
   3.79793059460114        4.01630926368463        4.02335431703649     
   4.07589004574994        4.13755614672122        4.18139711751976     
   4.20904164303437        4.30638354438598        4.46118811719330     
   4.58040869274334        4.59332705884163        4.93107635998065     
   5.03109622364170        5.09494698237522        5.16660547655093     
   5.26682385881851        5.27221204350325        5.36564119857985     
   5.48645948297923        5.51599816443214        5.59464201449265     
   5.87486425498972        5.95486433902478        6.07724536557640     
   6.30992732586964        6.65606889779498        6.92771375739652     
   7.14532846050182        7.25569396157510        7.56528845993810     
   7.68332612328489        7.86158625153566        10.4793201632618     
   12.0282055606949        13.7809243463475       0.135319877625558     
  0.454446996882610       0.671831620790645       0.724678022266413     
  0.830119209300958       0.895342730096252       0.979267116712452     
   1.14244621829043        1.21335295813087        1.54699985891933     
   1.67215888310768        2.09435417086847        2.23718090850939     
   2.39553422183978        2.93731868149084        2.98309271549767     
   3.21039438635040        3.24446592608239        3.26999908288846     
   3.50689424377467        3.61981145162523        3.67381511640834     
   3.81864754858109        3.97874020680396        4.00250366234750     
   4.12096497825738        4.22485794766567        4.31401983654906     
   4.60877906368595        4.73578700699413        5.02481582322679     
   5.15833310971156        5.24436673593826        5.35903621816754     
   5.67477240171220        5.94281341611042        6.40660163076549     
   6.88528963425097        7.05112384517761        7.23174663496816     
 @CHECKOUT-I, Total execution time (CPU/WALL):        1.78/       2.21 seconds.
--executable xvtran finished with status     0 in        2.31 seconds (walltime).
 --invoking executable--
/home/orgChemistry/bin/cfour_v21/bin/xintprc
 @GETMEM-I,  Allocated    4768 MB of main memory.
  @GMOIAA-I, Processing MO integrals for spin case AA.
  @GMOIAA-I, Generation of integral list completed.
                      TYPE                NUMBER
                      ----               --------
                      PPPP                     0
                      PPPH               5364800
                      PPHH                544720
                      PHPH                299480
                      PHHH                 62240
                      HHHH                  1921

                     TOTAL               6273161

  @FORMT2-I, Second-order MP correlation energies:
            ------------------------------------------------
            E(SCF)                  =   -168.900947026288 a.u.
            E2(AA)                  =     -0.075109584344 a.u.
            E2(AB)                  =     -0.461889701875 a.u.
            E2(TOT)                 =     -0.612108870563 a.u.
            Total MP2 energy        =   -169.513055896851 a.u.
            ------------------------------------------------
   Largest T2 amplitudes for spin case AB:
       _       _                 _       _                 _       _
   i   j   a   b             i   j   a   b             i   j   a   b
-----------------------------------------------------------------------------
[ 12  12  93  93]-0.07686 [ 12  11  93  93]-0.03282 [ 11  12  93  93]-0.03282
[ 11  11  93  93]-0.03115 [ 12  12  94  94]-0.02651 [ 12  12  94  93]-0.02425
[ 12  12  93  94]-0.02425 [ 10  10  93  93]-0.01713 [ 12  11  93  96]-0.01641
[ 11  12  96  93]-0.01641 [  6   6  93  93]-0.01623 [ 12  11  96  93]-0.01496
[ 11  12  93  96]-0.01496 [ 12  10  93  24] 0.01476 [ 10  12  24  93] 0.01476
-----------------------------------------------------------------------------
   Norm of T2AB vector (  1088000 symmetry allowed elements):  0.3625358598.
-----------------------------------------------------------------------------
 @CHECKOUT-I, Total execution time (CPU/WALL):        0.48/       1.20 seconds.
--executable xintprc finished with status     0 in        1.30 seconds (walltime).
  calling xecc 
 --invoking executable--
/home/orgChemistry/bin/cfour_v21/bin/xecc
 @GETMEM-I,  Allocated    4768 MB of main memory.
 CCSD(T) energy will be calculated.
 AO based algorithm is used. 
   Frozen core orbitals in analytic derivative calculation
 Largest T2 amplitudes for spin case AB:
        _       _                 _       _                 _       _
    i   j   a   b             i   j   a   b             i   j   a   b
 -----------------------------------------------------------------------------
 [ 12  12  93  93]-0.07686 [ 12  11  93  93]-0.03282 [ 11  12  93  93]-0.03282
 [ 11  11  93  93]-0.03115 [ 12  12  94  94]-0.02651 [ 12  12  94  93]-0.02425
 [ 12  12  93  94]-0.02425 [ 10  10  93  93]-0.01713 [ 12  11  93  96]-0.01641
 [ 11  12  96  93]-0.01641 [  6   6  93  93]-0.01623 [ 12  11  96  93]-0.01496
 [ 11  12  93  96]-0.01496 [ 12  10  93  24] 0.01476 [ 10  12  24  93] 0.01476
 -----------------------------------------------------------------------------
 Norm of T2AB vector (  1088000 symmetry allowed elements):  0.3625358598.
 -----------------------------------------------------------------------------
 The total correlation energy is -0.612108870563 a.u.
 Resorts of amplitudes and integrals (CPU/WALL):       0.03/       0.06 seconds.
 Starting iterative solution of the CC equations.
 The DIIS procedure is used to accelerate convergence.
 5 expansion vectors are used in the DIIS extrapolation.
 Convergence criterium is 10**(-10).
 Maximum number of iterations is 100.
 >>>>>>>>>>>>>>>>>>>>>>>>>>>>>>>>>>>>>>>>>>>>>>>>>>>>>>>>>>>>>>>>>>>>>>>>>>>>>>>
 Iteration Nr.   1 started:
 Generation of Intermediates required (CPU/WALL):      0.37/       0.65 seconds.
 Transformation of t(ab,ij) amplitudes required    0.0 seconds.
 Contraction of t(mu nu,ij) with AO integrals required    2.6 seconds.
 Backtransformation of t(mu nu,ij) increments required    0.0 seconds.
 Construction of Hbar required (CPU/WALL):             2.90/       3.29 seconds.
   Frozen core orbitals in analytic derivative calculation
 Amplitude changes are:
 -------------------------------------------------------------------
              Spin      RMS          Max.      Max. change for
  Amplitude   Case     Change       Change       i    j    a    b
 -------------------------------------------------------------------
     T1        AA    0.0000552127-0.0177560051   11        93
     T2        AB    0.0000000468-0.0053563070   12   11   93   93
 -------------------------------------------------------------------
 The total correlation energy is -0.605894874702 a.u.
 Convergence information after     1 iterations: 
 Largest element of residual vector : -0.17756005E-01.
 Largest element of DIIS residual   : -0.17756005E-01.
 Iteration Nr.   1 required (CPU/WALL):                3.37/       4.16 seconds.
 >>>>>>>>>>>>>>>>>>>>>>>>>>>>>>>>>>>>>>>>>>>>>>>>>>>>>>>>>>>>>>>>>>>>>>>>>>>>>>>
 Iteration Nr.   2 started:
 Generation of Intermediates required (CPU/WALL):      0.37/       0.63 seconds.
 Transformation of t(ab,ij) amplitudes required    0.0 seconds.
 Contraction of t(mu nu,ij) with AO integrals required    2.6 seconds.
 Backtransformation of t(mu nu,ij) increments required    0.0 seconds.
 Construction of Hbar required (CPU/WALL):             2.93/       3.39 seconds.
   Frozen core orbitals in analytic derivative calculation
 Amplitude changes are:
 -------------------------------------------------------------------
              Spin      RMS          Max.      Max. change for
  Amplitude   Case     Change       Change       i    j    a    b
 -------------------------------------------------------------------
     T1        AA    0.0000075513 0.0024862729   11        93
     T2        AB    0.0000000252-0.0124104139   12   12   93   93
 -------------------------------------------------------------------
 The total correlation energy is -0.624192054582 a.u.
 Convergence information after     2 iterations: 
 Largest element of residual vector : -0.12410414E-01.
 Largest element of DIIS residual   : -0.11505063E-01.
 Iteration Nr.   2 required (CPU/WALL):                3.43/       4.29 seconds.
 >>>>>>>>>>>>>>>>>>>>>>>>>>>>>>>>>>>>>>>>>>>>>>>>>>>>>>>>>>>>>>>>>>>>>>>>>>>>>>>
 Iteration Nr.   3 started:
 Generation of Intermediates required (CPU/WALL):      0.37/       0.65 seconds.
 Transformation of t(ab,ij) amplitudes required    0.0 seconds.
 Contraction of t(mu nu,ij) with AO integrals required    2.6 seconds.
 Backtransformation of t(mu nu,ij) increments required    0.0 seconds.
 Construction of Hbar required (CPU/WALL):             2.93/       3.42 seconds.
   Frozen core orbitals in analytic derivative calculation
 Amplitude changes are:
 -------------------------------------------------------------------
              Spin      RMS          Max.      Max. change for
  Amplitude   Case     Change       Change       i    j    a    b
 -------------------------------------------------------------------
     T1        AA    0.0000106123-0.0050088204   11        93
     T2        AB    0.0000000086-0.0037749142   12   12   93   93
 -------------------------------------------------------------------
 The total correlation energy is -0.623935602105 a.u.
 Convergence information after     3 iterations: 
 Largest element of residual vector : -0.50088204E-02.
 Largest element of DIIS residual   :  0.38232341E-02.
 Iteration Nr.   3 required (CPU/WALL):                3.46/       4.39 seconds.
 >>>>>>>>>>>>>>>>>>>>>>>>>>>>>>>>>>>>>>>>>>>>>>>>>>>>>>>>>>>>>>>>>>>>>>>>>>>>>>>
 Iteration Nr.   4 started:
 Generation of Intermediates required (CPU/WALL):      0.37/       0.67 seconds.
 Transformation of t(ab,ij) amplitudes required    0.0 seconds.
 Contraction of t(mu nu,ij) with AO integrals required    2.6 seconds.
 Backtransformation of t(mu nu,ij) increments required    0.0 seconds.
 Construction of Hbar required (CPU/WALL):             2.93/       3.33 seconds.
   Frozen core orbitals in analytic derivative calculation
 Amplitude changes are:
 -------------------------------------------------------------------
              Spin      RMS          Max.      Max. change for
  Amplitude   Case     Change       Change       i    j    a    b
 -------------------------------------------------------------------
     T1        AA    0.0000018772 0.0006284589   10        13
     T2        AB    0.0000000032-0.0017155487   12   12   93   93
 -------------------------------------------------------------------
 The total correlation energy is -0.625945237510 a.u.
 Convergence information after     4 iterations: 
 Largest element of residual vector : -0.17155487E-02.
 Largest element of DIIS residual   : -0.91455593E-03.
 Iteration Nr.   4 required (CPU/WALL):                3.49/       4.39 seconds.
 >>>>>>>>>>>>>>>>>>>>>>>>>>>>>>>>>>>>>>>>>>>>>>>>>>>>>>>>>>>>>>>>>>>>>>>>>>>>>>>
 Iteration Nr.   5 started:
 Generation of Intermediates required (CPU/WALL):      0.37/       0.64 seconds.
 Transformation of t(ab,ij) amplitudes required    0.0 seconds.
 Contraction of t(mu nu,ij) with AO integrals required    2.6 seconds.
 Backtransformation of t(mu nu,ij) increments required    0.0 seconds.
 Construction of Hbar required (CPU/WALL):             2.91/       3.30 seconds.
   Frozen core orbitals in analytic derivative calculation
 Amplitude changes are:
 -------------------------------------------------------------------
              Spin      RMS          Max.      Max. change for
  Amplitude   Case     Change       Change       i    j    a    b
 -------------------------------------------------------------------
     T1        AA    0.0000018558 0.0011036054   12        93
     T2        AB    0.0000000010-0.0004944220   12   12   93   93
 -------------------------------------------------------------------
 The total correlation energy is -0.626335660259 a.u.
 Convergence information after     5 iterations: 
 Largest element of residual vector :  0.11036054E-02.
 Largest element of DIIS residual   :  0.51474729E-03.
 Iteration Nr.   5 required (CPU/WALL):                3.51/       4.40 seconds.
 Largest T1 amplitudes for spin case AA:
    i       a                 i       a                 i       a    
 -----------------------------------------------------------------------------
 [ 11      93    ]-0.02360 [ 12      93    ] 0.02315 [ 12      94    ] 0.02315
 [ 10      13    ] 0.01727 [ 12      98    ]-0.01138 [ 12      96    ]-0.00937
 [ 12     101    ] 0.00894 [ 11      95    ]-0.00821 [  8      15    ]-0.00753
 [ 11      98    ]-0.00700 [ 10      24    ]-0.00671 [  9      13    ] 0.00648
 [ 10      23    ]-0.00648 [  8      18    ] 0.00602 [  8      17    ]-0.00601
 -----------------------------------------------------------------------------
 Norm of T1AA vector (      880 symmetry allowed elements):  0.0607791352.
 -----------------------------------------------------------------------------
 Largest T2 amplitudes for spin case AB:
        _       _                 _       _                 _       _
    i   j   a   b             i   j   a   b             i   j   a   b
 -----------------------------------------------------------------------------
 [ 12  12  93  93]-0.10200 [ 12  11  93  93]-0.04345 [ 11  12  93  93]-0.04345
 [ 12  12  94  93]-0.03409 [ 12  12  93  94]-0.03409 [ 11  11  93  93]-0.03273
 [ 12  12  94  94]-0.02659 [ 10  10  93  93]-0.02368 [ 12  11  93  96]-0.01916
 [ 11  12  96  93]-0.01916 [ 12  11  96  93]-0.01882 [ 11  12  93  96]-0.01882
 [ 12  12  96  93]-0.01823 [ 12  12  93  96]-0.01823 [  6   6  93  93]-0.01745
 -----------------------------------------------------------------------------
 Norm of T2AB vector (  1088000 symmetry allowed elements):  0.4016929686.
 -----------------------------------------------------------------------------
 >>>>>>>>>>>>>>>>>>>>>>>>>>>>>>>>>>>>>>>>>>>>>>>>>>>>>>>>>>>>>>>>>>>>>>>>>>>>>>>
 Iteration Nr.   6 started:
 Generation of Intermediates required (CPU/WALL):      0.37/       0.64 seconds.
 Transformation of t(ab,ij) amplitudes required    0.0 seconds.
 Contraction of t(mu nu,ij) with AO integrals required    2.6 seconds.
 Backtransformation of t(mu nu,ij) increments required    0.0 seconds.
 Construction of Hbar required (CPU/WALL):             2.84/       3.22 seconds.
   Frozen core orbitals in analytic derivative calculation
 Amplitude changes are:
 -------------------------------------------------------------------
              Spin      RMS          Max.      Max. change for
  Amplitude   Case     Change       Change       i    j    a    b
 -------------------------------------------------------------------
     T1        AA    0.0000006331 0.0003339286   12        93
     T2        AB    0.0000000003 0.0000530838   11   12   93   93
 -------------------------------------------------------------------
 The total correlation energy is -0.626366044994 a.u.
 Convergence information after     6 iterations: 
 Largest element of residual vector :  0.33392865E-03.
 Largest element of DIIS residual   : -0.13635491E-03.
 Iteration Nr.   6 required (CPU/WALL):                3.44/       4.31 seconds.
 >>>>>>>>>>>>>>>>>>>>>>>>>>>>>>>>>>>>>>>>>>>>>>>>>>>>>>>>>>>>>>>>>>>>>>>>>>>>>>>
 Iteration Nr.   7 started:
 Generation of Intermediates required (CPU/WALL):      0.36/       0.63 seconds.
 Transformation of t(ab,ij) amplitudes required    0.0 seconds.
 Contraction of t(mu nu,ij) with AO integrals required    2.6 seconds.
 Backtransformation of t(mu nu,ij) increments required    0.0 seconds.
 Construction of Hbar required (CPU/WALL):             2.91/       3.29 seconds.
   Frozen core orbitals in analytic derivative calculation
 Amplitude changes are:
 -------------------------------------------------------------------
              Spin      RMS          Max.      Max. change for
  Amplitude   Case     Change       Change       i    j    a    b
 -------------------------------------------------------------------
     T1        AA    0.0000003200 0.0002159293   12        93
     T2        AB    0.0000000002 0.0000631492   12   12   93   93
 -------------------------------------------------------------------
 The total correlation energy is -0.626370137607 a.u.
 Convergence information after     7 iterations: 
 Largest element of residual vector :  0.21592928E-03.
 Largest element of DIIS residual   :  0.11348414E-03.
 Iteration Nr.   7 required (CPU/WALL):                3.49/       4.36 seconds.
 >>>>>>>>>>>>>>>>>>>>>>>>>>>>>>>>>>>>>>>>>>>>>>>>>>>>>>>>>>>>>>>>>>>>>>>>>>>>>>>
 Iteration Nr.   8 started:
[...]
 H #6 z    0.000000    0.000000   -0.002897    0.000000    0.000000    0.006283


           H #3 x      H #3 y      H #3 z      H #4 x      H #4 y      H #4 z

 H #3 x    0.057622
 H #3 y    0.015056    0.334796
 H #3 z    0.000000    0.000000    0.020162

 H #4 x    0.003610    0.002836    0.000000    0.304001
 H #4 y   -0.023094   -0.007194    0.000000    0.123929    0.118139
 H #4 z    0.000000    0.000000    0.003301    0.000000    0.000000    0.022607

 O #5 x    0.007247   -0.003775    0.000000   -0.001546    0.006658    0.000000
 O #5 y    0.007298    0.008167    0.000000    0.003007    0.001810    0.000000
 O #5 z    0.000000    0.000000   -0.010668    0.000000    0.000000    0.014998

 H #6 x    0.000617    0.004491    0.000000   -0.000106    0.001587    0.000000
 H #6 y   -0.003026   -0.000269    0.000000    0.001290   -0.000338    0.000000
 H #6 z    0.000000    0.000000   -0.001006    0.000000    0.000000    0.000003


           O #5 x      O #5 y      O #5 z      H #6 x      H #6 y      H #6 z

 O #5 x    0.358669
 O #5 y   -0.047670    0.557201
 O #5 z    0.000000    0.000000    0.032006

 H #6 x   -0.077607    0.125698    0.000000    0.080880
 H #6 y    0.079251   -0.448387    0.000000   -0.072752    0.471159
 H #6 z    0.000000    0.000000   -0.008259    0.000000    0.000000    0.005876




                           Total dipole moment
                           -------------------

                               au             Debye

                    x     -0.65855062     -1.67386901
                    y      1.01328286      2.57550858

  Conversion factor used: 1 a.u. =   2.54174691 Debye 



                     Total dipole moment derivatives
                     -------------------------------


           Symmetry 1
                              Ex             Ey

               C #1 x    -0.07820317     0.05817671
               C #1 y     0.21181893     0.32639599
               N #2 x     0.72499484    -0.03229964
               N #2 y     0.39888340    -0.21446312
               H #3 x    -0.00290368    -0.10211335
               H #3 y     0.00250935    -0.12619707
               H #4 x    -0.00366161    -0.01443060
               H #4 y    -0.04280301     0.03535375
               O #5 x    -0.82943478    -0.03445752
               O #5 y    -0.60604549    -0.06718102
               H #6 x     0.18920840     0.12512440
               H #6 y     0.03563682     0.04609146

           Symmetry 2
                              Ez

               C #1 z    -0.12611228
               N #2 z    -0.17777395
               H #3 z     0.15771657
               H #4 z     0.13955223
               O #5 z    -0.30515630
               H #6 z     0.31177374



                       Ex          Ey          Ez

      C #1    x   -0.078203    0.058177    0.000000
      C #1    y    0.211819    0.326396    0.000000
      C #1    z    0.000000    0.000000   -0.126112

      N #2    x    0.724995   -0.032300    0.000000
      N #2    y    0.398883   -0.214463    0.000000
      N #2    z    0.000000    0.000000   -0.177774

      H #3    x   -0.002904   -0.102113    0.000000
      H #3    y    0.002509   -0.126197    0.000000
      H #3    z    0.000000    0.000000    0.157717

      H #4    x   -0.003662   -0.014431    0.000000
      H #4    y   -0.042803    0.035354    0.000000
      H #4    z    0.000000    0.000000    0.139552

      O #5    x   -0.829435   -0.034458    0.000000
      O #5    y   -0.606045   -0.067181    0.000000
      O #5    z    0.000000    0.000000   -0.305156

      H #6    x    0.189208    0.125124    0.000000
      H #6    y    0.035637    0.046091    0.000000
      H #6    z    0.000000    0.000000    0.311774

 @CHECKOUT-I, Total execution time (CPU/WALL):       53.45/      54.42 seconds.
--executable xvdint finished with status     0 in       54.43 seconds (walltime).
 --invoking executable--
/home/orgChemistry/bin/cfour_v21/bin/xjoda
  igrd and ihes are                      0                     0
  gradient from JOBARC 
  -0.000000168735141   0.000000086832700   0.000000000000000
   0.000000130096893  -0.000000250452877   0.000000000000000
   0.000000005762010   0.000000152082057   0.000000000000000
  -0.000000143633264  -0.000000061050954   0.000000000000000
   0.000000195401662  -0.000000115697839   0.000000000000000
  -0.000000018892145   0.000000188286962   0.000000000000000
 
  masses used (in AMU) in vibrational analysis: 
  12.000000000     14.003074002      1.007825035
   1.007825035     15.994914630      1.007825035
                     Normal Coordinate Analysis
  ----------------------------------------------------------------
    Irreducible         Harmonic       Infrared        Type 
   Representation       Frequency      Intensity 
  ----------------------------------------------------------------
                       (cm-1)         (km/mol)
  ----------------------------------------------------------------
      ----                 0.5948i        1.1400      TRANSLATION
      ----                 0.4117i        0.0874      TRANSLATION
      ----                 0.1353i        2.8043      TRANSLATION
      ----                 0.3029         4.0489       ROTATION  
      ----                 0.3327         3.0633       ROTATION  
      ----                 1.0884        35.6750       ROTATION  
       A''               437.0574        71.7369       VIBRATION 
        A'               568.0441         8.1315       VIBRATION 
       A''               773.3058         0.1539       VIBRATION 
       A''               936.5695        35.3745       VIBRATION 
        A'               942.9073        88.4788       VIBRATION 
        A'              1175.7934        13.2150       VIBRATION 
        A'              1396.6848         6.5676       VIBRATION 
        A'              1472.6708        43.1717       VIBRATION 
        A'              1654.0428        18.6428       VIBRATION 
        A'              3063.4078        19.1095       VIBRATION 
        A'              3238.5781         3.6720       VIBRATION 
        A'              3670.6631         1.4547       VIBRATION 
  ----------------------------------------------------------------
 
 
                                   Normal Coordinates 

               A''                        A'                       A''
               437.06                    568.04                    773.31 
             VIBRATION                 VIBRATION                 VIBRATION 
 C     -0.000-0.0000  0.1156    0.4076  0.0855  0.0000   -0.0000  0.0000  0.0410
 N     -0.000-0.0000 -0.2048    0.0012 -0.4656  0.0000   -0.0000 -0.0000 -0.3656
 H      0.000 0.0000  0.2318    0.4394  0.0092  0.0000   -0.0000 -0.0000 -0.4855
 H     -0.000 0.0000 -0.0979   -0.0264  0.3228  0.0000    0.0000  0.0000  0.7516
 O      0.000-0.0000  0.2826   -0.3820  0.2714  0.0000    0.0000 -0.0000  0.2499
 H      0.000 0.0000 -0.8953   -0.3022  0.0273  0.0000    0.0000 -0.0000 -0.0400

               A''                        A'                        A'
               936.57                    942.91                   1175.79 
             VIBRATION                 VIBRATION                 VIBRATION 
 C      0.000-0.0000  0.5038    0.2742 -0.0066 -0.0000    0.2742  0.3754  0.0000
 N      0.000 0.0000 -0.1644    0.4124  0.3895  0.0000   -0.1969 -0.3244 -0.0000
 H     -0.000 0.0000 -0.6559   -0.0646  0.0085  0.0000   -0.5156  0.1345 -0.0000
 H      0.000-0.0000 -0.5372    0.1938 -0.2088  0.0000    0.3368 -0.4082 -0.0000
 O     -0.000-0.0000  0.0177   -0.6534 -0.2983 -0.0000    0.0565  0.0593  0.0000
 H      0.000 0.0000 -0.0028   -0.0098 -0.0402  0.0000   -0.2584 -0.0489  0.0000

                A'                        A'                        A'
              1396.68                   1472.67                   1654.04 
             VIBRATION                 VIBRATION                 VIBRATION 
 C      0.179-0.0463 -0.0000    0.0666  0.0556 -0.0000    0.5466 -0.4160  0.0000
 N     -0.369-0.0522  0.0000    0.2017 -0.2931  0.0000   -0.4772  0.3502 -0.0000
 H      0.329-0.0575  0.0000   -0.5458  0.0476  0.0000   -0.2631 -0.1065 -0.0000
 H      0.241-0.3763  0.0000   -0.1840  0.4037  0.0000   -0.0304  0.2839  0.0000
 O     -0.121 0.1551 -0.0000   -0.2019  0.0808 -0.0000    0.0718 -0.0065  0.0000
 H      0.669 0.1700  0.0000    0.5524  0.1279  0.0000   -0.1003 -0.0215  0.0000

                A'                        A'                        A'
              3063.41                   3238.58                   3670.66 
             VIBRATION                 VIBRATION                 VIBRATION 
 C      0.081-0.2289  0.0000    0.2469  0.1946  0.0000    0.0022  0.0112 -0.0000
 N     -0.018 0.0022  0.0000   -0.0002  0.0080 -0.0000   -0.0024 -0.0093 -0.0000
 H      0.054 0.9153  0.0000   -0.0114 -0.2838 -0.0000   -0.0081 -0.0148  0.0000
 H     -0.275-0.1537 -0.0000   -0.8099 -0.4053 -0.0000    0.0011 -0.0018  0.0000
 O     -0.001 0.0002 -0.0000   -0.0061 -0.0010 -0.0000    0.0471 -0.2362 -0.0000
 H      0.012 0.0195  0.0000   -0.0056 -0.0081 -0.0000   -0.1795  0.9536  0.0000
            Gradient vector in normal coordinate representation
         ----------------------------------------------------------
   i    W(I)     dE/dQ(i)     dE/dq      dE/dq     [dE/dQ(i)]/w(i)
                              (cm-1)      (eV)        (relative)
         ----------------------------------------------------------
    7   437.06  0.0000000000      0.00000      0.00000   0.0000000000
    8   568.04 -0.0000000142     -0.00143     -0.00000   0.0000000000
    9   773.31  0.0000000000      0.00000      0.00000   0.0000000000
   10   936.57 -0.0000000000     -0.00000     -0.00000   0.0000000000
   11   942.91 -0.0000000700     -0.00549     -0.00000   0.0000000000
   12  1175.79  0.0000000017      0.00012      0.00000   0.0000000000
   13  1396.68 -0.0000000288     -0.00186     -0.00000   0.0000000000
   14  1472.67  0.0000000320      0.00201      0.00000   0.0000000000
   15  1654.04 -0.0000001061     -0.00628     -0.00000   0.0000000000
   16  3063.41  0.0000001806      0.00786      0.00000   0.0000000000
   17  3238.58  0.0000000881      0.00373      0.00000   0.0000000000
   18  3670.66  0.0000001897      0.00754      0.00000   0.0000000000
         ----------------------------------------------------------
 
                      Normal modes in internal coordinates 
---------------------------------------------------------------------------
              0.595         0.412         0.135         0.303         0.333
---------------------------------------------------------------------------
R12        0.000000     -0.000000      0.000000      0.000000      0.000000
R13        0.000000      0.000000     -0.000000      0.000000      0.000000
A213      -0.000000     -0.000000      0.000000     -0.000000     -0.000000
R14       -0.000000     -0.000000      0.000000     -0.000000     -0.000000
A214       0.000000      0.000000     -0.000000      0.000000      0.000000
D3214      0.000000      0.000000      0.000000     -0.000000      0.000000
R25       -0.000000     -0.000000     -0.000000     -0.000000      0.000000
A125      -0.000000     -0.000000      0.000000     -0.000000     -0.000000
D3125     -0.000000     -0.000000     -0.000000      0.000000     -0.000000
R56        0.000000     -0.000000     -0.000000      0.000000      0.000000
A256      -0.000000     -0.000000      0.000000     -0.000000     -0.000000
D1256     -0.000000      0.000000     -0.000000      0.000000     -0.000001
---------------------------------------------------------------------------
              1.088       437.057       568.044       773.306       936.570
---------------------------------------------------------------------------
R12       -0.000000     -0.000000     -0.030564     -0.000000     -0.000000
R13       -0.000000     -0.000000      0.012465      0.000000      0.000000
A213      -0.000000     -0.000000     -0.385271     -0.000000     -0.000000
R14       -0.000000     -0.000000     -0.022939      0.000000     -0.000000
A214       0.000000      0.000000      0.416920     -0.000000      0.000000
D3214      0.000000      0.000028      0.000000      0.148869     -0.847390
R25       -0.000000     -0.000000      0.030068     -0.000000     -0.000000
A125       0.000000      0.000000     -0.805624      0.000000      0.000000
D3125      0.000000     -0.031740      0.000000      0.921913      0.522113
R56       -0.000000      0.000000     -0.013001      0.000000      0.000000
A256      -0.000000      0.000000     -0.161324     -0.000000      0.000000
D1256     -0.000007     -0.999496     -0.000000     -0.357652     -0.096578
---------------------------------------------------------------------------
            942.907      1175.793      1396.685      1472.671      1654.043
---------------------------------------------------------------------------
R12       -0.108315      0.016448     -0.244680      0.156697     -0.724863
R13        0.006703     -0.013368     -0.057471     -0.000658     -0.019651
A213       0.076644      0.665301     -0.197814      0.553015      0.411325
R14       -0.026839      0.003480     -0.013003      0.014429     -0.025894
A214      -0.206895     -0.655319     -0.479590      0.355806      0.444952
D3214      0.000000     -0.000000      0.000000      0.000000      0.000000
R25       -0.932129      0.184503      0.172477     -0.085413      0.169855
A125       0.154448     -0.206665     -0.086231     -0.139910      0.120829
D3125     -0.000000      0.000000     -0.000000     -0.000000     -0.000000
R56        0.017096     -0.022611      0.002915     -0.007485      0.004023
A256       0.214037     -0.224070      0.793934      0.718253     -0.250759
D1256      0.000000     -0.000000      0.000000      0.000000      0.000000
---------------------------------------------------------------------------
           3063.408      3238.578      3670.663
---------------------------------------------------------------------------
R12       -0.060587     -0.024141      0.002296
R13        0.951831     -0.325831     -0.017916
A213      -0.003630      0.062911      0.005800
R14        0.296701      0.941487      0.001768
A214       0.041420     -0.041626     -0.004414
D3214      0.000000     -0.000000      0.000000
R25        0.003643     -0.002289     -0.015255
A125       0.015836     -0.033205      0.018563
D3125     -0.000000      0.000000     -0.000000
R56        0.016393     -0.006580      0.999263
A256       0.007297     -0.003312     -0.022663
D1256      0.000000     -0.000000      0.000000
---------------------------------------------------------------------------
 
  ----------------------------------------------------------------
                    Dipole Moment Function
                   (Normal Coordinate Basis)
  ----------------------------------------------------------------
    Mode     Symmetry    d(Mu(x))/dQ   d(Mu(y))/dQ   d(Mu(z))/dQ
  ----------------------------------------------------------------
     Q7         A''        0.000000      0.000000     -0.271268
     Q8          A'       -0.086190     -0.030206      0.000000
     Q9         A''       -0.000000      0.000000      0.012565
     Q10        A''        0.000000     -0.000000     -0.190490
     Q11         A'        0.300666     -0.018964      0.000000
     Q12         A'       -0.109100      0.040657     -0.000000
     Q13         A'        0.063899      0.051515      0.000000
     Q14         A'        0.133193      0.162924      0.000000
     Q15         A'       -0.137970     -0.009365     -0.000000
     Q16         A'       -0.006233     -0.139869      0.000000
     Q17         A'        0.026762      0.055231     -0.000000
     Q18         A'        0.025272      0.029216      0.000000
  ----------------------------------------------------------------
---------------------------------------------------------------------------
------------------------------------------------------------
        Parameter                (MHz)                 (CM-1)
------------------------------------------------------------
 
           R6                -.154235E-03           -.514473E-08
           R5                -.398252E-03           -.132842E-07
           SI                            0.575062E+02
 
  A-reduced centrifugal distortion parameters (Ir representation) 
 
           DJ                0.953774E-02           0.318145E-06
           DK                0.107280E+01           0.357846E-04
           DJK               -.339790E-01           -.113342E-05
           DELJ              0.984621E-02           0.328434E-06
           DELK              0.107434E+01           0.358361E-04
           DELJK             -.358298E-01           -.119515E-05
           delJ              0.198045E-02           0.660608E-07
           delK              0.362744E-01           0.120998E-05
 
  S-reduced centrifugal distortion parameters (Ir representation) 
 
           DJ                0.953081E-02           0.317914E-06
           DK                0.107276E+01           0.357835E-04
           DJK               -.339375E-01           -.113203E-05
           D1                -.198045E-02           -.660608E-07
           D2                -.157698E-03           -.526023E-08
------------------------------------------------------------
   Rotationally projected vibrational frequencies 
            1               0.0000i
            2               0.0000i
            3               0.0000i
            4               0.0000i
            5               0.0000 
            6               0.0000 
            7             437.0574 
            8             568.0441 
            9             773.3058 
           10             936.5695 
           11             942.9073 
           12            1175.7934 
           13            1396.6848 
           14            1472.6708 
           15            1654.0428 
           16            3063.4078 
           17            3238.5781 
           18            3670.6631 
  Zero-point energy:   27.6332 kcal/mol =  115.6175 kJ/mol =    9664.862 cm-1 
 
  Finite temperature thermodynamic corrections:
=======================================================
Temperature     Entropy       Enthalpy     Gibbs Energy
    (K)        (J/(mol K))    (kJ/mol)      (kJ/mol) 
=======================================================
    298.15      253.1219       11.6667      -63.8016
    100.00      208.9948        3.3376      -17.5619
    200.00      234.5603        7.0692      -39.8428
    300.00      253.4457       11.7635      -64.2702
    400.00      270.0134       17.5481      -90.4573
    500.00      285.0972       24.3247     -118.2238
    600.00      298.9477       31.9329     -147.4357
    700.00      311.7200       40.2266     -177.9775
    800.00      323.5507       49.0922     -209.7483
    900.00      334.5604       58.4441     -242.6602
   1000.00      344.8516       68.2152     -276.6365
   1100.00      354.5095       78.3509     -311.6095
   1200.00      363.6043       88.8056     -347.5196
   1300.00      372.1950       99.5399     -384.3135
   1400.00      380.3310      110.5199     -421.9434
   1500.00      388.0548      121.7162     -460.3660
   1600.00      395.4032      133.1033     -499.5419
   1700.00      402.4082      144.6588     -539.4352
   1800.00      409.0981      156.3635     -580.0130
   1900.00      415.4978      168.2007     -621.2451
   2000.00      421.6297      180.1557     -663.1037
=======================================================
 @CHECKOUT-I, Total execution time (CPU/WALL):        0.03/       0.24 seconds.
--executable xjoda finished with status     0 in        0.25 seconds (walltime).
  The final electronic energy is      -169.555224757981421 a.u. 
  This computation required                         7510.40 seconds (walltime).

real	125m10.507s
user	80m28.347s
sys	17m8.334s
