 --invoking executable--
/home/orgChemistry/bin/cfour_v21/bin/xjoda


   *************************************************************************
         <<<     CCCCCC     CCCCCC   |||     CCCCCC     CCCCCC   >>>
       <<<      CCC        CCC       |||    CCC        CCC         >>>
      <<<      CCC        CCC        |||   CCC        CCC            >>>
    <<<        CCC        CCC        |||   CCC        CCC              >>>
      <<<      CCC        CCC        |||   CCC        CCC            >>>
       <<<      CCC        CCC       |||    CCC        CCC         >>>
         <<<     CCCCCC     CCCCCC   |||     CCCCCC     CCCCCC   >>>
   *************************************************************************

     ****************************************************************
     * CFOUR Coupled-Cluster techniques for Computational Chemistry *
     ****************************************************************
 

   Department of Chemistry                Institut fuer Physikalische Chemie
   University of Florida                  Universitaet Mainz
   Gainesville, FL 32611, USA             D-55099 Mainz, Germany

   Department of Chemistry                Fakultaet fuer Chemie und Biowiss.
   Johns Hopkins University               Karlsruher Institut fuer Technologie
   Baltimore, MD 21218, USA               D-76131 Karlsruhe, Germany

   Department of Chemistry                Department of Physical Chemistry
   Southern Methodist University          Eotvos Lorand University
   Dallas, TX 75275, USA                  H-1053 Budapest, Hungary

 
                       Version 2.1
 
                     node2-050                                         
                     Fri Jan 29 00:57:00 CET 2021                      
                     integer*8 version is running
 
********************************************************************************
*                          Input from ZMAT file                                *
********************************************************************************
title                                                                           
C                                                                               
N 1 R12                                                                         
O 1 R13 2 A213                                                                  
H 1 R14 3 A314 2 D2314                                                          
H 2 R25 1 A125 3 D3125                                                          
H 3 R36 1 A136 2 D2136                                                          
                                                                                
R12  =        1.269082593268988                                                 
R13  =        1.348383807144536                                                 
A213 =      121.844493114386012                                                 
R14  =        1.088198259630469                                                 
A314 =      110.681175922510064                                                 
D2314=     -180.000000000000000                                                 
R25  =        1.015789550560973                                                 
A125 =      109.827857061460932                                                 
D3125=     -180.000000000000000                                                 
R36  =        0.967775419484690                                                 
A136 =      105.605534860290334                                                 
D2136=        0.000000000000000                                                 
                                                                                
*CFOUR(CALC=CCSD(T),BASIS=cc-pVTZ,FROZEN_CORE=1                                 
       VIB=EXACT                                                                
       MEMORY_SIZE=5000,MEM_UNIT=MB,ABCDTYPE=AOBASIS,CC_PROG=ECC                
       MULTIPLICITY=1,CHARGE=0                                                  
       SCF_CONV=8,CC_CONV=10)                                                   
                                                                                
********************************************************************************
    -------------------------------------------------------------------
                    CFOUR Control Parameters 
    -------------------------------------------------------------------
        External           Internal           Value            Units
          Name               Name
    -------------------------------------------------------------------
       ABCDTYPE             IABCDT         AOBASIS     [  2]    ***   
       ANHARMONIC           IANHAR         OFF         [  0]    ***   
       ANH_ALGORIT          IANALG         STANDARD    [  0]    ***   
       ANH_DERIVAT          IANDER         SECOND      [  1]    ***   
       ANH_MODE             ANHMOD         VIBRATION   [  0]    ***   
       ANH_STEPSIZ          ICUBST             50000          x 10-6  
       ANH_SYMMETR          IANHSM         ABELIAN     [  0]    ***   
       AO_LADDERS           IAOLAD         SINGLEPASS  [  1]    ***   
       AV_SCF               IAVSCF         OFF         [  0]    ***   
       BASIS                IBASIS         PVTZ        [ 14]    ***   
       BOTHVECTORS          BOTHVC         OFF         [  0]    ***   
       BOX_POTENT           IPIAB          OFF         [  0]    ***   
       BREIT                IBREIT         OFF         [  0]    ***   
       BRUCK_CONV           IBRTOL          10D-  4             ***   
       BRUECKNER            IBRKNR         OFF         [  0]    ***   
       BUFFERSIZE           IBUFFS              4096            ***   
       CACHE_RECS           ICHREC             10               ***   
       CALCLEVEL            ICLLVL         CCSD(T)     [ 22]    ***   
       CCORBOPT             ICCORB         OFF         [  0]  x 0.01  
       CC_CONV              ICCCNV          10D- 10             ***   
       CC_EXPORDER          ICCEOR              5               ***   
       CC_EXTRAPOL          ICCEXT         DIIS        [  1]    ***   
       CC_GUESS             ICCGES         MP2         [  0]    ***   
       CC_MAXCYC            ICCCYC            100              cycles 
       CC_PROGRAM           ICCPRO         ECC         [  1]    ***   
       CHARGE               ICHRGE              0               ***   
       CHOLESKY             ICHOLE         OFF         [  0]    ***   
       CIS_CONV             ICISTL              5               ***   
       COMM_SIZE            IPSIZE            ***               ***   
       CONSTANT             ICONST         OLD         [  1]    ***   
       CONTINUUM            ICONTU         NONE        [  0]    ***   
       CONTRACTION          ICNTYP         GENERAL     [  1]    ***   
       COORDINATES          ICOORD         INTERNAL    [  0]    ***   
       CPHF_CONVER          ICPHFT          10D- 16             ***   
       CPHF_MAXCYC          ICPHFC             64              cycles 
       CUBIC                ICUBIC         OFF         [  0]    ***   
       CURVILINEAR          ICURVY         OFF         [  0]    ***   
       DBOC                 IDBOC          OFF         [  0]    ***   
       DCT                  IDCT           OFF         [  0]    ***   
       DERIV_LEV            IDRLVL         SECOND      [  2]    ***   
       DEVMEM_SIZE          IDVMEM         *********           MByte  
       DIAG_MRCC            IEOMST          10D-  0             ***   
       DIFF_TYPE            IDIFTY         RELAXED     [  0]    ***   
       DIRECT               IDIRCT         OFF         [  0]    ***   
       DROPMO               IDRPMO      NONE         
       ECP                  IECP           OFF         [  0]    ***   
       EIGENVECTOR          IVEC                1               ***   
       EL_ANHARM            IELANH         OFF         [  0]    ***   
       EOMFOLLOW            IEOMSR         ENERGY      [  0]    ***   
       EOMIP                IEOMIP         OFF         [  0]    ***   
       EOMLEVEL             HBARFM         SAME        [  0]    ***   
       EOM_MRCC             IMRCCE         NEW         [  1]    ***   
       EOM_NONIT            EOMNON         OFF         [  0]    ***   
       EOM_NSING            IEOMSI          10D-  0             ***   
       EOM_NSTATES          IMRCCD         DAVIDSON    [  0]    ***   
       EOM_NTRIP            IEOMTR          10D-  0             ***   
       EOM_ORDER            IEXORD         ENERGY      [  0]    ***   
       EOM_PROPSTA          IEOMST              0               ***   
       ESTATE_CONV          IEXTOL          10D-  5             ***   
       ESTATE_DIAG          IEXDIG         ITERATIVE   [  0]    ***   
       ESTATE_LOCK          IESLOC         ON          [  1]    ***   
       ESTATE_MAXC          IEXMXC             40               ***   
       ESTATE_PROP          IEXPRP         OFF         [  0]    ***   
       EVAL_HESS            IRECAL              0            # of cyc.
       EXCITATION           IEXCIT              0               ***   
       EXCITE               IEXCIT         NONE        [  0]    ***   
       EXTERN_POT           IEXPOT         OFF         [  0]    ***   
       FCGRADNEW            IFCGNW         OFF         [  0]    ***   
       FC_FIELD             IFINFC              0             x 10-6  
       FD_CALTYPE           IFDCAL         GRADONLY    [  0]    ***   
       FD_PROJECT           IFDPRJ         OFF         [  1]    ***   
       FD_STEPSIZE          IDISFD              0            10-4 bohr
       FD_USEGROUP          IFDGRP         FULL        [  0]    ***   
       FILE_RECSIZ          IFLREC              4096           words  
       FINITE_PERT          IFIPER              0             x 10-6  
       FIXGEOM              IFIXGM         OFF         [  0]    ***   
       FOCK                 IFOCK          AO          [  1]    ***   
       FREQ_ALGORI          IVIALG         STANDARD    [  0]    ***   
       FROZEN_CORE          IFROCO         ON          [  1]    ***   
       GAMMA_ABCD           IGABCD         DIRECT      [  1]    ***   
       GAMMA_ABCI           IGABCI         STORE       [  0]    ***   
       GENBAS_1             IGNBS1              0               ***   
       GENBAS_2             IGNBS2              0               ***   
       GENBAS_3             IGNBS3              0               ***   
       GENBAS_4             IGNBS4              0               ***   
       GEO_CONV             ICONTL              5              H/bohr 
       GEO_MAXCYC           IOPTCY             50               ***   
       GEO_MAXSTEP          IMXSTP            300            millibohr
       GEO_METHOD           INR            SINGLE_POINT[  5]    ***   
       GIAO                 IGIAO          OFF         [  1]    ***   
       GIMIC                IGIMIC         OFF         [  0]    ***   
       GRID                 IGRID          OFF         [  0]    ***   
       GRID_ALGO            IGALGO         SERIAL      [  0]    ***   
       GUESS                IGUESS         MOREAD      [  0]    ***   
       HBAR                 IHBAR          OFF         [  0]    ***   
       HESS_TYPE            IHESTP         SCF         [  0]    ***   
       HF2_FILE             IHF2Fl         USE         [  1]    ***   
       HFSTABILITY          ISTABL         OFF         [  0]    ***   
       INCORE               INCORE         OFF         [  0]    ***   
       INPUT_MRCC           IMRCC          ON          [  1]    ***   
       INTEGRALS            INTTYP         VMOL        [  1]    ***   
       JODA_PRINT           IJPRNT              0               ***   
       KEYWORD_OUT          IDMPKW         NO          [  0]    ***   
       LINDEP_TOL           ILINDP              8               ***   
       LINEQ_CONV           IZTACN          10D-  7           cycles  
       LINEQ_EXPOR          ILMAXD              5               ***   
       LINEQ_MAXCY          ILMAXC            100               ***   
       LINEQ_TYPE           ILTYPE         DIIS        [  1]    ***   
       LOCK_ORBOCC          ILOCOC         OFF         [  0]    ***   
       MEMORY_SIZE          IMEMSZ         625000000           words  
       MEM_UNIT             IMEMU          MB          [  2]    ***   
       MRCC                 IMRCCC         OFF         [  0]    ***   
       MULTIPLICTY          IMULTP              1               ***   
       NACOUPLING           IVCOUP         OFF         [  0]    ***   
       NEGEVAL              IDIE           ABORT       [  0]    ***   
       NEWNORM              INEWNO         OFF         [  0]    ***   
       NON-HF               INONHF         OFF         [  0]    ***   
       NTOP_TAMP            ITOPT2             15               ***   
       NUC_MODEL            INUCMO         POINT       [  0]    ***   
       OCCUPATION           IOCCU   ESTIMATED BY SCF 
       OPEN-SHELL           IOPEN          SPIN-ORBITAL[  0]    ***   
       OPTVIB               IOPTVB         OFF         [  0]    ***   
       ORBITALS             IORBTP         STANDARD    [  0]    ***   
       PARALLEL             IPARAL         ON          [  1]    ***   
       PARA_INT             IPINTS         ON          [  1]    ***   
       PARA_PRINT           IPPRIN              0               ***   
       PERT_ORB             IPTORB         CANONICAL   [  1]    ***   
       POINTS               IGRDFD              0               ***   
       PRINT                IPRNT               0               ***   
       PROPS                IPROPS         OFF         [  0]    ***   
       PROP_INTEGR          IINTYP         INTERNAL    [  0]    ***   
       PSI                  IPSI           OFF         [  0]    ***   
       QC_ALG               IQCALG         FLM         [  0]    ***   
       QC_LINALG            IQCLIN         TRIDIAG     [  2]    ***   
       QC_MAXCYC            IQCMAX          10D-100           cycles  
       QC_MAXSCFCY          IQCMSC          10D- 15           cycles  
       QC_RTRUST            IQCRTR          10D-  0           x 10-3  
       QC_SKIPSCF           IQCSKI         OFF         [  0]    ***   
       QC_START             IQCSTA          10D-  1             ***   
       QRHFGUESS            IQGUES         OFF         [  0]    ***   
       QUARTIC              IQUART         OFF         [  0]    ***   
       RAMAN_INT            IRAMIN         OFF         [  0]    ***   
       RAMAN_ORB            IRAMRE         UNRELAXED   [  0]    ***   
       RDO                  IRDOFM         ON          [  1]    ***   
       REDUCE_REPR          REDREP         Ir          [  0]    ***   
       REFERENCE            IREFNC         RHF         [  0]    ***   
       RELATIVIST           IRELAT         OFF         [  0]    ***   
       RELAX_DENS           IRDENS         ON          [  1]    ***   
       RESET_FLAGS          IRESET         OFF         [  0]    ***   
       RESTART_CC           ICCRES         OFF         [  0]    ***   
       ROT_EVEC             ROTVEC              0               ***   
       SAVE_INTS            ISVINT         OFF         [  0]    ***   
       SCALE_ON             ISTCRT              0               ***   
       SCF_CONV             ISCFCV          10D-  8             ***   
       SCF_DAMPING          IDAMP               0             x 10-3  
       SCF_EXPORDE          IRPPOR              6               ***   
       SCF_EXPSTAR          IRPPLS              8               ***   
       SCF_EXTRAPO          IRPP           ON          [  1]    ***   
       SCF_MAXCYC           ISCFCY            150              cycles 
       SCF_NOSTOP           ISCFST         OFF         [  0]    ***   
       SCF_PRINT            ISCFPR              0               ***   
       SCF_PROG             ISCFPR         SCF         [  0]    ***   
       SD_FIELD             IFINSD              0             x 10-6  
       SOPERT               IPERSO         OFF         [  0]    ***   
       SPHERICAL            IDFGHI         ON          [  1]    ***   
       SPINORBIT            ISOCAL         OFF         [  0]    ***   
       SPINROTATIO          ISRCON         OFF         [  0]    ***   
       SPIN_FLIP            ISPFLP         OFF         [  0]    ***   
       SPIN_ORBIT           ISPORB         OFF         [  0]    ***   
       SPIN_SCAL            ISCSMP         OFF         [  0]    ***   
       STEEPSCALE           ISTPSC              1000          x 10-3  
       SUBGROUP             ISUBGP         DEFAULT     [  0]    ***   
       SUBGRPAXIS           ISBXYZ         X           [  0]    ***   
       SYMMETRY             ISYM           ON          [  0]    ***   
       SYM_CHECK            ISYMCK         OVERRIDE    [  1]    ***   
       T3_EXTRAPOL          IT3EXT         OFF         [  0]    ***   
       T4_EXTRAPOL          IT4EXP         OFF         [  0]    ***   
       TAMP_SUM             IEVERY              5               ***   
       TESTSUITE            ITESTS         OFF         [  0]    ***   
       THERMOCH             ITHERM         ON          [  1]    ***   
       TOL_CHOLESK          ITOLCH          10D-  4             ***   
       TRANGRAD             IRESRM         OFF         [  0]    ***   
       TRANS_INV            ITRAIN         USE         [  0]    ***   
       TREAT_PERT           ITREAT         SIMULTANEOUS[  0]    ***   
       TRIP_ALGORI          ITRALG         NORMAL      [  0]    ***   
       UIJ_THRESHO          IUIJTH              1               ***   
       UNITS                IUNITS         ANGSTROM    [  0]    ***   
       UNOS                 IUNOS          OFF         [  0]    ***   
       UPDATE_HESS          IHUPDT         ON          [  1]    ***   
       VIBPHASE             ISETPH         STANDARD    [  0]    ***   
       VIBRATION            IVIB           ANALYTIC    [  1]    ***   
       VIB_ALGORIT          IGEALG         STANDARD    [  0]    ***   
       VNATORB              IVNORB         OFF         [  0]    ***   
       VTRAN                IVTRAN         PARTIAL     [  2]    ***   
       XFIELD               IXEFLD              0             x 10-6  
       XFORM_TOL            IXFTOL          10D- 11             ***   
       YFIELD               IYEFLD              0             x 10-6  
       ZFIELD               IZEFLD              0             x 10-6  
       ZSCALE_EXP           IZEXPS         OFF         [  0]    ***   
    -------------------------------------------------------------------
   6 entries found in Z-matrix 
   Job Title : title                                                                           
   There are 12 unique internal coordinates.
   Of these,  0 will be optimized.
   User supplied Z-matrix: 
--------------------------------------------------------------------------------
       SYMBOL    BOND      LENGTH    ANGLE     ANGLE     DIHED     ANGLE
                  TO      (ANGST)    WRT      (DEG)      WRT      (DEG)
--------------------------------------------------------------------------------
        C    
        N          1         R12  
        O          1         R13        2        A213 
        H          1         R14        3        A314       2        D2314
        H          2         R25        1        A125       3        D3125
        H          3         R36        1        A136       2        D2136
                  *Initial values for internal coordinates* 
                      Name             Value
                        R12             1.2690825933
                        R13             1.3483838071
                        A213          121.8444931144
                        R14             1.0881982596
                        A314          110.6811759225
                        D2314        -180.0000000000
                        R25             1.0157895506
                        A125          109.8278570615
                        D3125        -180.0000000000
                        R36             0.9677754195
                        A136          105.6055348603
                        D2136           0.0000000000
--------------------------------------------------------------------------------
  filter applied 
  filter applied 
   Rotational constants (in cm-1): 
          0.3293380786             0.3827587997             2.3597032200
   Rotational constants (in MHz): 
       9873.3085928388         11474.8217468214         70742.1327589135
********************************************************************************
   The full molecular point group is C s .
   The largest Abelian subgroup of the full molecular point group is C s .
   The computational point group is C s .
********************************************************************************
--------------------------------------------------------------------------------
   Analysis of internal coordinates specified by Z-matrix 
--------------------------------------------------------------------------------
   *The nuclear repulsion energy is   71.057643441441883 a.u.
   *There are   9 degrees of freedom within the tot. symm. molecular subspace.
   *Z-matrix requests optimization of   0 coordinates.
   *The optimization is constrained.
   *The following   9 parameters can have non-zero 
    derivatives within the totally symmetric subspace:
             A314 [ 5]  A125 [ 8]  A136 [11]  A213 [ 3]  R14  [ 4]  R25  [ 7]
             R36  [10]  R12  [ 1]  R13  [ 2]
   *The following   0 parameters are to be optimized:

   *The following coordinates must be varied in an  unconstrained optimization.
             A314 [ 5]  A125 [ 8]  A136 [11]  A213 [ 3]  R14  [ 4]  R25  [ 7]
             R36  [10]  R12  [ 1]  R13  [ 2]
--------------------------------------------------------------------------------


 ----------------------------------------------------------------
         Coordinates used in calculation (QCOMP) 
 ----------------------------------------------------------------
 Z-matrix   Atomic            Coordinates (in bohr)
  Symbol    Number           X              Y              Z
 ----------------------------------------------------------------
     C         6        -0.17640204     0.81026022    -0.00000000
     N         7        -2.16585980    -0.52896059     0.00000000
     O         8         2.14759138    -0.23460780     0.00000000
     H         1        -0.04987616     2.86276120    -0.00000000
     H         1        -3.71437075     0.60542979    -0.00000000
     H         1         1.87401678    -2.04286091     0.00000000
 ----------------------------------------------------------------
 
   Interatomic distance matrix (Angstroms) 
 
                 C             N             O             H             H    
                [ 1]        [ 2]        [ 3]        [ 4]        [ 5]
  C    [ 1]     0.00000
  N    [ 2]     1.26908     0.00000
  O    [ 3]     1.34838     2.28789     0.00000
  H    [ 4]     1.08820     2.11546     2.00966     0.00000
  H    [ 5]     1.87535     1.01579     3.13371     2.27756     0.00000
  H    [ 6]     1.85925     2.28299     0.96778     2.78844     3.27250
 
                 H    
                [ 6]
  H    [ 6]     0.00000
 rotcon2
   Rotational constants (in cm-1): 
          2.3597032200             0.3827587997             0.3293380786
   Rotational constants (in MHz): 
      70742.1327589135         11474.8217468214          9873.3085928387
  There are   3 frozen-core orbitals.
  There are  132 basis functions.
 @CHECKOUT-I, Total execution time (CPU/WALL):        0.11/       0.58 seconds.
--executable xjoda finished with status     0 in        2.07 seconds (walltime).
 --invoking executable--
/home/orgChemistry/bin/cfour_v21/bin/xvmol
 SERIAL VERSION OF MOLECULE STARTED
********************************************************************************
                    INPUT FROM MOL FILE
********************************************************************************
INTGRL        1    0    1    0    0    0    0    0    0                         
         *** CFOUR Program System (Release V0.1) ***                            
title                                                                           
    6    1 Z          0.10E-08              0    0                              
   9999.00      3.00                                                            
          6.00000000    1    4    1    1    1    1                              
C #1  -0.176402039467867   0.810260215317616  -0.000000000000001                
   10    4                                                                      
   8236.00000000000       5.310000000000000E-004 -1.130000000000000E-004        
  0.000000000000000E+000  0.000000000000000E+000                                
   1235.00000000000       4.108000000000000E-003 -8.780000000000000E-004        
  0.000000000000000E+000  0.000000000000000E+000                                
   280.800000000000       2.108700000000000E-002 -4.540000000000000E-003        
  0.000000000000000E+000  0.000000000000000E+000                                
   79.2700000000000       8.185300000000000E-002 -1.813300000000000E-002        
  0.000000000000000E+000  0.000000000000000E+000                                
   25.5900000000000       0.234817000000000      -5.576000000000000E-002        
  0.000000000000000E+000  0.000000000000000E+000                                
   8.99700000000000       0.434401000000000      -0.126895000000000             
  0.000000000000000E+000  0.000000000000000E+000                                
   3.31900000000000       0.346129000000000      -0.170352000000000             
  0.000000000000000E+000  0.000000000000000E+000                                
  0.905900000000000       3.937800000000000E-002  0.140382000000000             
   1.00000000000000       0.000000000000000E+000                                
  0.364300000000000      -8.983000000000000E-003  0.598684000000000             
  0.000000000000000E+000  0.000000000000000E+000                                
  0.128500000000000       2.385000000000000E-003  0.395389000000000             
  0.000000000000000E+000   1.00000000000000                                     
    5    3                                                                      
   18.7100000000000       1.403100000000000E-002  0.000000000000000E+000        
  0.000000000000000E+000                                                        
   4.13300000000000       8.686600000000000E-002  0.000000000000000E+000        
  0.000000000000000E+000                                                        
   1.20000000000000       0.290216000000000       0.000000000000000E+000        
  0.000000000000000E+000                                                        
  0.382700000000000       0.501008000000000        1.00000000000000             
  0.000000000000000E+000                                                        
  0.120900000000000       0.343406000000000       0.000000000000000E+000        
   1.00000000000000                                                             
    2    2                                                                      
   1.09700000000000        1.00000000000000       0.000000000000000E+000        
  0.318000000000000       0.000000000000000E+000   1.00000000000000             
    1    1                                                                      
  0.761000000000000        1.00000000000000                                     
          7.00000000    1    4    1    1    1    1                              
N #2  -2.165859798148213  -0.528960587491008   0.000000000000000                
   10    4                                                                      
   11420.0000000000       5.230000000000000E-004 -1.150000000000000E-004        
  0.000000000000000E+000  0.000000000000000E+000                                
   1712.00000000000       4.045000000000000E-003 -8.950000000000000E-004        
  0.000000000000000E+000  0.000000000000000E+000                                
   389.300000000000       2.077500000000000E-002 -4.624000000000000E-003        
  0.000000000000000E+000  0.000000000000000E+000                                
   110.000000000000       8.072699999999999E-002 -1.852800000000000E-002        
  0.000000000000000E+000  0.000000000000000E+000                                
   35.5700000000000       0.233074000000000      -5.733900000000000E-002        
  0.000000000000000E+000  0.000000000000000E+000                                
   12.5400000000000       0.433501000000000      -0.132076000000000             
  0.000000000000000E+000  0.000000000000000E+000                                
   4.64400000000000       0.347472000000000      -0.172510000000000             
  0.000000000000000E+000  0.000000000000000E+000                                
   1.29300000000000       4.126200000000000E-002  0.151814000000000             
   1.00000000000000       0.000000000000000E+000                                
  0.511800000000000      -8.508000000000000E-003  0.599944000000000             
  0.000000000000000E+000  0.000000000000000E+000                                
  0.178700000000000       2.384000000000000E-003  0.387462000000000             
  0.000000000000000E+000   1.00000000000000                                     
    5    3                                                                      
   26.6300000000000       1.467000000000000E-002  0.000000000000000E+000        
  0.000000000000000E+000                                                        
   5.94800000000000       9.176400000000000E-002  0.000000000000000E+000        
  0.000000000000000E+000                                                        
   1.74200000000000       0.298683000000000       0.000000000000000E+000        
  0.000000000000000E+000                                                        
  0.555000000000000       0.498487000000000        1.00000000000000             
  0.000000000000000E+000                                                        
  0.172500000000000       0.337023000000000       0.000000000000000E+000        
   1.00000000000000                                                             
    2    2                                                                      
   1.65400000000000        1.00000000000000       0.000000000000000E+000        
  0.469000000000000       0.000000000000000E+000   1.00000000000000             
    1    1                                                                      
   1.09300000000000        1.00000000000000                                     
          8.00000000    1    4    1    1    1    1                              
O #3   2.147591377933632  -0.234607796072293   0.000000000000000                
   10    4                                                                      
   15330.0000000000       5.080000000000000E-004 -1.150000000000000E-004        
  0.000000000000000E+000  0.000000000000000E+000                                
   2299.00000000000       3.929000000000000E-003 -8.950000000000000E-004        
  0.000000000000000E+000  0.000000000000000E+000                                
   522.400000000000       2.024300000000000E-002 -4.636000000000000E-003        
  0.000000000000000E+000  0.000000000000000E+000                                
   147.300000000000       7.918100000000000E-002 -1.872400000000000E-002        
  0.000000000000000E+000  0.000000000000000E+000                                
   47.5500000000000       0.230687000000000      -5.846300000000000E-002        
  0.000000000000000E+000  0.000000000000000E+000                                
   16.7600000000000       0.433118000000000      -0.136463000000000             
  0.000000000000000E+000  0.000000000000000E+000                                
   6.20700000000000       0.350260000000000      -0.175740000000000             
  0.000000000000000E+000  0.000000000000000E+000                                
   1.75200000000000       4.272800000000000E-002  0.160934000000000             
   1.00000000000000       0.000000000000000E+000                                
  0.688200000000000      -8.154000000000000E-003  0.603418000000000             
  0.000000000000000E+000  0.000000000000000E+000                                
  0.238400000000000       2.381000000000000E-003  0.378765000000000             
  0.000000000000000E+000   1.00000000000000                                     
    5    3                                                                      
   34.4600000000000       1.592800000000000E-002  0.000000000000000E+000        
  0.000000000000000E+000                                                        
   7.74900000000000       9.974000000000000E-002  0.000000000000000E+000        
  0.000000000000000E+000                                                        
   2.28000000000000       0.310492000000000       0.000000000000000E+000        
  0.000000000000000E+000                                                        
  0.715600000000000       0.491026000000000        1.00000000000000             
  0.000000000000000E+000                                                        
  0.214000000000000       0.336337000000000       0.000000000000000E+000        
   1.00000000000000                                                             
    2    2                                                                      
   2.31400000000000        1.00000000000000       0.000000000000000E+000        
  0.645000000000000       0.000000000000000E+000   1.00000000000000             
    1    1                                                                      
   1.42800000000000        1.00000000000000                                     
          1.00000000    1    3    1    1    1                                   
H #4  -0.049876161140561   2.862761197074114  -0.000000000000003                
    5    3                                                                      
   33.8700000000000       6.068000000000000E-003  0.000000000000000E+000        
  0.000000000000000E+000                                                        
   5.09500000000000       4.530800000000000E-002  0.000000000000000E+000        
  0.000000000000000E+000                                                        
   1.15900000000000       0.202822000000000       0.000000000000000E+000        
  0.000000000000000E+000                                                        
  0.325800000000000       0.503903000000000        1.00000000000000             
  0.000000000000000E+000                                                        
  0.102700000000000       0.383421000000000       0.000000000000000E+000        
   1.00000000000000                                                             
    2    2                                                                      
   1.40700000000000        1.00000000000000       0.000000000000000E+000        
  0.388000000000000       0.000000000000000E+000   1.00000000000000             
    1    1                                                                      
   1.05700000000000        1.00000000000000                                     
          1.00000000    1    3    1    1    1                                   
H #5  -3.714370748443489   0.605429789084608  -0.000000000000001                
    5    3                                                                      
   33.8700000000000       6.068000000000000E-003  0.000000000000000E+000        
  0.000000000000000E+000                                                        
   5.09500000000000       4.530800000000000E-002  0.000000000000000E+000        
  0.000000000000000E+000                                                        
   1.15900000000000       0.202822000000000       0.000000000000000E+000        
  0.000000000000000E+000                                                        
  0.325800000000000       0.503903000000000        1.00000000000000             
  0.000000000000000E+000                                                        
  0.102700000000000       0.383421000000000       0.000000000000000E+000        
   1.00000000000000                                                             
    2    2                                                                      
   1.40700000000000        1.00000000000000       0.000000000000000E+000        
  0.388000000000000       0.000000000000000E+000   1.00000000000000             
    1    1                                                                      
   1.05700000000000        1.00000000000000                                     
          1.00000000    1    3    1    1    1                                   
H #6   1.874016781363529  -2.042860907237491   0.000000000000002                
    5    3                                                                      
   33.8700000000000       6.068000000000000E-003  0.000000000000000E+000        
  0.000000000000000E+000                                                        
   5.09500000000000       4.530800000000000E-002  0.000000000000000E+000        
  0.000000000000000E+000                                                        
   1.15900000000000       0.202822000000000       0.000000000000000E+000        
  0.000000000000000E+000                                                        
  0.325800000000000       0.503903000000000        1.00000000000000             
  0.000000000000000E+000                                                        
  0.102700000000000       0.383421000000000       0.000000000000000E+000        
   1.00000000000000                                                             
    2    2                                                                      
   1.40700000000000        1.00000000000000       0.000000000000000E+000        
  0.388000000000000       0.000000000000000E+000   1.00000000000000             
    1    1                                                                      
   1.05700000000000        1.00000000000000                                     
FINISH                                                                          
 
********************************************************************************
 ONE- AND TWO-ELECTRON INTEGRALS OVER SYMMETRY-ADAPTED AOS ARE CALCULATED.

  SPHERICAL HARMONICS ARE USED.
  
  INTEGRALS LESS THAN  0.10E-13 ARE NEGLECTED.

  NUCLEAR REPULSION ENERGY :   71.0576434414 A.U.
  @MOLECU-I, ONE ELECTRON INTEGRALS (CPU/WALL):        0.04/       0.05 SECONDS.
  @TWOEL-I,    8710310 INTEGRALS OF SYMMETRY TYPE  I I I I
  @TWOEL-I,    7044737 INTEGRALS OF SYMMETRY TYPE  I J I J
  @TWOEL-I,    3651229 INTEGRALS OF SYMMETRY TYPE  I I J J
  @TWOEL-I, TOTAL NUMBER OF 2-E INTEGRALS   19406276.
  @MOLECU-I, TWO ELECTRON INTEGRALS (CPU/WALL):       10.81/      11.35 SECONDS.
 @CHECKOUT-I, Total execution time (CPU/WALL):       10.87/      11.44 seconds.

Running with 24 threads/proc

--executable xvmol finished with status     0 in       12.93 seconds (walltime).
 --invoking executable--
/home/orgChemistry/bin/cfour_v21/bin/xvmol2ja
 @GETMEM-I,  Allocated    4768 MB of main memory.
 @CHECKOUT-I, Total execution time (CPU/WALL):        0.01/       0.02 seconds.
--executable xvmol2ja finished with status     0 in        0.26 seconds (walltime).
 --invoking executable--
/home/orgChemistry/bin/cfour_v21/bin/xvscf
  There are  132 functions in the AO basis.

  There are 2 irreducible representations.

       Irrep        # of functions
         1                 90
         2                 42


  Parameters for SCF calculation: 
        SCF reference function:  RHF  
  Maximum number of iterations:  150
     Full symmetry point group: C s 
     Computational point group: C s 
        Initial density matrix: MOREAD                 
     SCF convergence tolerance: 10**(- 8)
  DIIS convergence acceleration:  ON
          Latest start for DIIS:   8
                     DIIS order:   6

  Memory information:     834884 words required.
  Fock matrices are constructed from AO integral file.
 @GETMEM-I,  Allocated       6 MB of main memory.
  Initialization and symmetry analysis required      0.002 seconds.

  @INITGES-I, Occupancies from core Hamiltonian:

          Alpha population by irrep:  10    2
           Beta population by irrep:  10    2


 total no. of electrons in initial guess :  0.000000000000000E+000
  --------------------------------------------------------------------
  Iteration         Total Energy            Largest Density Difference
  --------------------------------------------------------------------
       0            71.057643441441869              0.0000000000D+00
   current occupation vector 
    10  2
    10  2
       1          -138.471433069491809              0.1519342776D+02
   current occupation vector 
    10  2
    10  2
       2          -140.620556446438115              0.3339784800D+02
   current occupation vector 
    10  2
    10  2
       3          -143.093051077681707              0.3321860884D+02
   current occupation vector 
    10  2
    10  2
       4          -126.527902460488022              0.1264796470D+02
   current occupation vector 
    10  2
    10  2
       5          -125.799083880761387              0.1264854636D+02
   current occupation vector 
    10  2
    10  2
       6          -119.552925883208715              0.8710279932D+01
   current occupation vector 
     9  3
     9  3
       7          -122.297697832342990              0.8979718255D+01
   current occupation vector 
    10  2
    10  2
       8          -120.429626066982209              0.8979740124D+01
   current occupation vector 
     9  3
     9  3
       9          -156.593661214016436              0.8189461152D+01
   current occupation vector 
    10  2
    10  2
      10          -168.265949241635042              0.2051392972D+01
   current occupation vector 
    10  2
    10  2
      11          -168.797495641686055              0.9533595289D+00
   current occupation vector 
    10  2
    10  2
      12          -168.959568152663110              0.3999351584D+00
   current occupation vector 
    10  2
    10  2
      13          -168.979206806975867              0.1460428959D+00
   current occupation vector 
    10  2
    10  2
      14          -168.980539821053924              0.2384191001D-01
   current occupation vector 
    10  2
    10  2
      15          -168.980959997426851              0.1654741020D-01
   current occupation vector 
    10  2
    10  2
      16          -168.981042751948621              0.1140182600D-01
   current occupation vector 
    10  2
    10  2
      17          -168.981050959002630              0.4074962160D-02
   current occupation vector 
    10  2
    10  2
      18          -168.981051718320941              0.1201565306D-02
   current occupation vector 
    10  2
    10  2
      19          -168.981051751818086              0.2136530943D-03
   current occupation vector 
    10  2
    10  2
      20          -168.981051753563634              0.4801718239D-04
   current occupation vector 
    10  2
    10  2
      21          -168.981051753690792              0.1303356547D-04
   current occupation vector 
    10  2
    10  2
      22          -168.981051753717395              0.6821158025D-05
   current occupation vector 
    10  2
    10  2
      23          -168.981051753717850              0.1469085610D-05
   current occupation vector 
    10  2
    10  2
      24          -168.981051753718759              0.5144208115D-06
   current occupation vector 
    10  2
    10  2
      25          -168.981051753718646              0.1256467096D-06
   current occupation vector 
    10  2
    10  2
      26          -168.981051753718702              0.7271686675D-07
   current occupation vector 
    10  2
    10  2
      27          -168.981051753718361              0.4537533105D-07
   current occupation vector 
    10  2
    10  2
      28          -168.981051753719612              0.1926677595D-07
   current occupation vector 
    10  2
    10  2

  SCF has converged.

 Density matrix saved to file den.dat
 total electron number:   24.0000000000002     
     E(SCF)=      -168.981051753717281              0.6361059013D-08

  Eigenvector printing suppressed.

 @PUTMOS-I, Writing converged MOs to NEWMOS. 
 @PUTMOS-I, Symmetry   1 Full Blocks 22 Partial Blocksize   2
 @PUTMOS-I, Symmetry   2 Full Blocks 10 Partial Blocksize   2
 @PUTFOCK-I, Writing converged Fock matrix to NEWFOCK. 
 @PUTFOCK-I, Symmetry   1 Full Blocks 22 Partial Blocksize   2
 @PUTFOCK-I, Symmetry   2 Full Blocks 10 Partial Blocksize   2


 
  ORBITAL EIGENVALUES (ALPHA)  (1H = 27.2113834 eV)

       MO #        E(hartree)               E(eV)           FULLSYM    COMPSYM
       ----   --------------------   --------------------   -------   ---------
    1     1         -20.6011063047        -560.5846021215     A'        A'  (1)
    2     2         -15.5462287852        -423.0343918984     A'        A'  (1)
    3     3         -11.3463259359        -308.7492252227     A'        A'  (1)
    4     4          -1.4288264163         -38.8803434256     A'        A'  (1)
    5     5          -1.1956619030         -32.5356144602     A'        A'  (1)
    6     6          -0.8638856914         -23.5075247635     A'        A'  (1)
    7     7          -0.7318152972         -19.9137066310     A'        A'  (1)
    8     8          -0.6691524241         -18.2085631643     A'        A'  (1)
    9    91          -0.6007882744         -16.3482800760     A''       A'' (2)
   10     9          -0.5834264585         -15.8758410482     A'        A'  (1)
   11    10          -0.4509475758         -12.2709073782     A'        A'  (1)
   12    92          -0.4166805488         -11.3384541696     A''       A'' (2)
  +++++++++++++++++++++++++++++++++++++++++++++++++++++++++++++++++++++++++++++
   13    11           0.1504724846           4.0945644698     A'        A'  (1)
   14    12           0.1651859524           4.4949382832     A'        A'  (1)
   15    93           0.1745735509           4.7503878247     A''       A'' (2)
   16    13           0.1992693502           5.4223946878     A'        A'  (1)
   17    14           0.3293248337           8.9613843133     A'        A'  (1)
   18    15           0.3611730873           9.8280193517     A'        A'  (1)
   19    94           0.4406148326          11.9897391410     A''       A'' (2)
   20    16           0.5020598727          13.6617436868     A'        A'  (1)
   21    17           0.5205326025          14.1644122201     A'        A'  (1)
   22    18           0.5487256355          14.9315836488     A'        A'  (1)
   23    19           0.5807610495          15.8033115805     A'        A'  (1)
   24    20           0.6433423225          17.5062345944     A'        A'  (1)
   25    21           0.6817247188          18.5506726952     A'        A'  (1)
   26    95           0.7057365219          19.2040670778     A''       A'' (2)
   27    22           0.7163429838          19.4926835771     A'        A'  (1)
   28    96           0.7307541097          19.8848302491     A''       A'' (2)
   29    23           0.7426244178          20.2078377541     A'        A'  (1)
   30    24           0.7644539556          20.8018496786     A'        A'  (1)
   31    25           0.8209250012          22.3385049500     A'        A'  (1)
   32    97           0.8501668898          23.1342171917     A''       A'' (2)
   33    98           0.8946567983          24.3448491486     A''       A'' (2)
   34    99           0.9444395206          25.6995058927     A''       A'' (2)
   35    26           1.0105911816          27.4995841031     A'        A'  (1)
   36   100           1.0758798646          29.2761794875     A''       A'' (2)
   37    27           1.0793449271          29.3704686315     A'        A'  (1)
   38    28           1.1079712998          30.1494318350     A'        A'  (1)
   39    29           1.2093159450          32.9071598317     A'        A'  (1)
   40    30           1.2833401386          34.9214605446     A'        A'  (1)
   41   101           1.3058590293          35.5342307131     A''       A'' (2)
   42    31           1.4373260674          39.1116306903     A'        A'  (1)
   43    32           1.4807765482          40.2939783823     A'        A'  (1)
   44    33           1.5371910774          41.8290957650     A'        A'  (1)
   45    34           1.5628868095          42.5283121849     A'        A'  (1)
   46   102           1.6809692760          45.7414994527     A''       A'' (2)
   47    35           1.6934070601          46.0799487649     A'        A'  (1)
   48   103           1.7345485735          47.1994662595     A''       A'' (2)
   49    36           1.7790856722          48.4113823271     A'        A'  (1)
   50    37           1.9003430161          51.7109624022     A'        A'  (1)
   51    38           1.9523283409          53.1255550072     A'        A'  (1)
   52   104           2.0880628597          56.8190790386     A''       A'' (2)
   53    39           2.0920203987          56.9267691499     A'        A'  (1)
   54   105           2.1253343434          57.8332876701     A''       A'' (2)
   55    40           2.2090887084          60.1123598083     A'        A'  (1)
   56    41           2.3073371488          62.7858357896     A'        A'  (1)
   57   106           2.4069200224          65.4956235433     A''       A'' (2)
   58    42           2.4677314226          67.1503858692     A'        A'  (1)
   59    43           2.6578760919          72.3244853676     A'        A'  (1)
   60    44           2.7549065948          74.9648195817     A'        A'  (1)
   61    45           2.7958382930          76.0786277148     A'        A'  (1)
   62    46           2.8791543811          78.3457737328     A'        A'  (1)
   63   107           2.9790914167          81.0651987247     A''       A'' (2)
   64    47           3.0113570190          81.9431903974     A'        A'  (1)
   65   108           3.1165612267          84.8059424294     A''       A'' (2)
   66   109           3.1945915226          86.9292547270     A''       A'' (2)
   67    48           3.2218261696          87.6703471483     A'        A'  (1)
   68    49           3.2545945119          88.5620190748     A'        A'  (1)
   69   110           3.2734800870          89.0759217003     A''       A'' (2)
   70    50           3.3436157370          90.9844097624     A'        A'  (1)
   71   111           3.3649278503          91.5643418470     A''       A'' (2)
   72    51           3.3992952815          92.4995271940     A'        A'  (1)
   73    52           3.4761136601          94.5898615469     A'        A'  (1)
   74   112           3.5051446233          95.3798342179     A''       A'' (2)
   75   113           3.5868704340          97.6037065867     A''       A'' (2)
   76    53           3.6504247463          99.3331073450     A'        A'  (1)
   77   114           3.6638736906          99.6990717247     A''       A'' (2)
   78    54           3.6961488516         100.5773235047     A'        A'  (1)
   79    55           3.7306190418         101.5153050664     A'        A'  (1)
   80   115           3.8128146354         103.7519608765     A''       A'' (2)
   81    56           3.8163109613         103.8471007418     A'        A'  (1)
   82   116           3.8824037217         105.6455761860     A''       A'' (2)
   83    57           3.9206426431         106.6861101366     A'        A'  (1)
   84   117           3.9898331546         108.5688796718     A''       A'' (2)
   85    58           3.9900686577         108.5752880378     A'        A'  (1)
   86    59           4.0234974168         109.4849308174     A'        A'  (1)
   87    60           4.1186055608         112.0729549878     A'        A'  (1)
   88   118           4.1337283326         112.4844665294     A''       A'' (2)
   89   119           4.1678917364         113.4141000089     A''       A'' (2)
   90    61           4.1868815926         113.9308402679     A'        A'  (1)
   91   120           4.2393860369         115.3595588306     A''       A'' (2)
   92    62           4.3747307800         119.0424765266     A'        A'  (1)
   93    63           4.4213199096         120.3102311940     A'        A'  (1)
   94    64           4.4549876515         121.2263770262     A'        A'  (1)
   95    65           4.5678197872         124.2966955318     A'        A'  (1)
   96    66           4.5877392255         124.8387310044     A'        A'  (1)
   97   121           4.5898880436         124.8972033176     A''       A'' (2)
   98    67           4.7676611371         129.7346551220     A'        A'  (1)
   99   122           4.8482063595         131.9264020509     A''       A'' (2)
  100    68           4.9748407691         135.3722995210     A'        A'  (1)
  101    69           5.0421678190         137.2043616891     A'        A'  (1)
  102   123           5.0963670497         138.6791977370     A''       A'' (2)
  103    70           5.1742047428         140.7972690475     A'        A'  (1)
  104   124           5.2173067982         141.9701356023     A''       A'' (2)
  105    71           5.2799720303         143.6753432568     A'        A'  (1)
  106   125           5.3725795853         146.1953229421     A''       A'' (2)
  107    72           5.3745345048         146.2485190071     A'        A'  (1)
  108    73           5.5104783146         149.9477381352     A'        A'  (1)
  109    74           5.5908842687         152.1356953812     A'        A'  (1)
  110    75           5.6662631626         154.1868593635     A'        A'  (1)
  111   126           5.6978136134         155.0453907755     A''       A'' (2)
  112    76           5.7625286347         156.8063760324     A'        A'  (1)
  113   127           5.9341203102         161.4756229038     A''       A'' (2)
  114    77           5.9366353022         161.5440593138     A'        A'  (1)
  115   128           6.1136937167         166.3620637148     A''       A'' (2)
  116    78           6.1988909241         168.6803975901     A'        A'  (1)
  117   129           6.3305446956         172.2628788437     A''       A'' (2)
  118    79           6.3543917941         172.9117913822     A'        A'  (1)
  119    80           6.5848756753         179.1835766417     A'        A'  (1)
  120    81           6.8439385111         186.2330347918     A'        A'  (1)
  121   130           6.9144494616         188.1517353002     A''       A'' (2)
  122    82           7.0545270593         191.9634405170     A'        A'  (1)
  123   131           7.0737701283         192.4870710452     A''       A'' (2)
  124    83           7.2170780086         196.3866767192     A'        A'  (1)
  125   132           7.2514392739         197.3216942839     A''       A'' (2)
  126    84           7.2784453566         198.0565671551     A'        A'  (1)
  127    85           7.5541540084         205.5589809848     A'        A'  (1)
  128    86           7.6264091569         207.5251435338     A'        A'  (1)
  129    87           7.8971799391         214.8931911025     A'        A'  (1)
  130    88          10.4578981948         284.5738773359     A'        A'  (1)
  131    89          12.7760805271         347.6548255735     A'        A'  (1)
  132    90          14.3803506787         391.3092357438     A'        A'  (1)


  VSCF finished.

 @CHECKOUT-I, Total execution time (CPU/WALL):        6.46/      11.12 seconds.
--executable xvscf finished with status     0 in       11.31 seconds (walltime).
 --invoking executable--
/home/orgChemistry/bin/cfour_v21/bin/xvtran
 @GETMEM-I,  Allocated    4768 MB of main memory.
  Partial RHF integral transformation
  Frozen-core orbitals requested within analytic derivative calculation
  Transformation of IIII integrals :
  1 pass through the AO integral file was required.
     8710310 AO integrals were read.
     3207686 MO integrals were written to HF2.
  Transformation of IIJJ integrals :
  1 pass through the AO integral file was required.
     3651229 AO integrals were read.
     1040985 MO integrals were written to HF2.
  Transformation of IJIJ integrals :
  1 pass through the AO integral file was required.
     7044737 AO integrals were read.
     2024490 MO integrals were written to HF2.
  Summary of active molecular orbitals: 
------------------------------------------------------------------------
 
  Index      Eigenvalue    Symmetry    Index      Eigenvalue    Symmetry
------------------------------------------------------------------------
     1       -20.6011063        1        67         4.5678198        1
     2       -15.5462288        1        68         4.5877392        1
     3       -11.3463259        1        69         4.7676611        1
     4        -1.4288264        1        70         4.9748408        1
     5        -1.1956619        1        71         5.0421678        1
     6        -0.8638857        1        72         5.1742047        1
     7        -0.7318153        1        73         5.2799720        1
     8        -0.6691524        1        74         5.3745345        1
     9        -0.5834265        1        75         5.5104783        1
    10        -0.4509476        1        76         5.5908843        1
    11        -0.6007883        2        77         5.6662632        1
    12        -0.4166805        2        78         5.7625286        1
    13         0.1504725        1        79         5.9366353        1
    14         0.1651860        1        80         6.1988909        1
    15         0.1992694        1        81         6.3543918        1
    16         0.3293248        1        82         6.5848757        1
    17         0.3611731        1        83         6.8439385        1
    18         0.5020599        1        84         7.0545271        1
    19         0.5205326        1        85         7.2170780        1
    20         0.5487256        1        86         7.2784454        1
    21         0.5807610        1        87         7.5541540        1
    22         0.6433423        1        88         7.6264092        1
    23         0.6817247        1        89         7.8971799        1
    24         0.7163430        1        90        10.4578982        1
    25         0.7426244        1        91        12.7760805        1
    26         0.7644540        1        92        14.3803507        1
    27         0.8209250        1        93         0.1745736        2
    28         1.0105912        1        94         0.4406148        2
    29         1.0793449        1        95         0.7057365        2
    30         1.1079713        1        96         0.7307541        2
    31         1.2093159        1        97         0.8501669        2
    32         1.2833401        1        98         0.8946568        2
    33         1.4373261        1        99         0.9444395        2
    34         1.4807765        1       100         1.0758799        2
    35         1.5371911        1       101         1.3058590        2
    36         1.5628868        1       102         1.6809693        2
    37         1.6934071        1       103         1.7345486        2
    38         1.7790857        1       104         2.0880629        2
    39         1.9003430        1       105         2.1253343        2
    40         1.9523283        1       106         2.4069200        2
    41         2.0920204        1       107         2.9790914        2
    42         2.2090887        1       108         3.1165612        2
    43         2.3073371        1       109         3.1945915        2
    44         2.4677314        1       110         3.2734801        2
    45         2.6578761        1       111         3.3649279        2
    46         2.7549066        1       112         3.5051446        2
    47         2.7958383        1       113         3.5868704        2
    48         2.8791544        1       114         3.6638737        2
    49         3.0113570        1       115         3.8128146        2
    50         3.2218262        1       116         3.8824037        2
    51         3.2545945        1       117         3.9898332        2
    52         3.3436157        1       118         4.1337283        2
    53         3.3992953        1       119         4.1678917        2
    54         3.4761137        1       120         4.2393860        2
    55         3.6504247        1       121         4.5898880        2
    56         3.6961489        1       122         4.8482064        2
    57         3.7306190        1       123         5.0963670        2
    58         3.8163110        1       124         5.2173068        2
    59         3.9206426        1       125         5.3725796        2
    60         3.9900687        1       126         5.6978136        2
    61         4.0234974        1       127         5.9341203        2
    62         4.1186056        1       128         6.1136937        2
    63         4.1868816        1       129         6.3305447        2
    64         4.3747308        1       130         6.9144495        2
    65         4.4213199        1       131         7.0737701        2
    66         4.4549877        1       132         7.2514393        2
------------------------------------------------------------------------
  -20.6011063047054       -15.5462287852087       -11.3463259358838     
  -1.42882641628704       -1.19566190303151      -0.863885691438187     
 -0.731815297234814      -0.669152424067336      -0.583426458509375     
 -0.450947575794145      -0.600788274365530      -0.416680548832432     
  0.150472484608128       0.165185952407239       0.199269350187168     
  0.329324833711238       0.361173087278166       0.502059872738336     
  0.520532602545298       0.548725635494344       0.580761049453973     
  0.643342322478028       0.681724718750636       0.716342983763834     
  0.742624417768832       0.764453955639749       0.820925001189070     
   1.01059118159796        1.07934492707736        1.10797129979633     
   1.20931594502136        1.28334013862113        1.43732606737971     
   1.48077654818009        1.53719107735533        1.56288680953023     
   1.69340706010985        1.77908567217802        1.90034301608603     
   1.95232834091211        2.09202039870930        2.20908870837825     
   2.30733714881976        2.46773142262371        2.65787609194399     
   2.75490659477770        2.79583829298410        2.87915438113266     
   3.01135701896740        3.22182616956752        3.25459451189777     
   3.34361573702225        3.39929528147529        3.47611366009781     
   3.65042474632165        3.69614885161255        3.73061904182266     
   3.81631096131017        3.92064264312994        3.99006865772994     
   4.02349741679850        4.11860556078026        4.18688159264620     
   4.37473078001028        4.42131990959302        4.45498765146368     
   4.56781978720680        4.58773922550187        4.76766113706670     
   4.97484076906586        5.04216781896914        5.17420474283991     
   5.27997203026419        5.37453450481543        5.51047831457069     
   5.59088426872152        5.66626316262730        5.76252863470282     
   5.93663530218716        6.19889092408800        6.35439179406626     
   6.58487567529258        6.84393851110680        7.05452705932791     
   7.21707800857906        7.27844535662455        7.55415400838629     
   7.62640915690487        7.89717993913232        10.4578981947626     
   12.7760805271471        14.3803506786709       0.174573550886716     
  0.440614832579426       0.705736521938137       0.730754109661216     
  0.850166889775331       0.894656798250292       0.944439520584238     
   1.07587986458227        1.30585902931710        1.68096927599395     
   1.73454857350083        2.08806285970128        2.12533434335207     
   2.40692002242214        2.97909141674545        3.11656122670219     
   3.19459152256855        3.27348008702608        3.36492785027007     
   3.50514462333179        3.58687043403586        3.66387369062371     
   3.81281463538115        3.88240372174614        3.98983315459677     
   4.13372833258436        4.16789173639928        4.23938603689801     
   4.58988804360573        4.84820635950991        5.09636704971891     
   5.21730679823741        5.37257958528243        5.69781361338200     
   5.93412031024431        6.11369371668193        6.33054469563132     
   6.91444946162441        7.07377012832160        7.25143927389968     
 @CHECKOUT-I, Total execution time (CPU/WALL):        1.80/       2.17 seconds.
--executable xvtran finished with status     0 in        2.28 seconds (walltime).
 --invoking executable--
/home/orgChemistry/bin/cfour_v21/bin/xintprc
 @GETMEM-I,  Allocated    4768 MB of main memory.
  @GMOIAA-I, Processing MO integrals for spin case AA.
  @GMOIAA-I, Generation of integral list completed.
                      TYPE                NUMBER
                      ----               --------
                      PPPP                     0
                      PPPH               5364800
                      PPHH                544720
                      PHPH                299480
                      PHHH                 62240
                      HHHH                  1921

                     TOTAL               6273161

  @FORMT2-I, Second-order MP correlation energies:
            ------------------------------------------------
            E(SCF)                  =   -168.981051753717 a.u.
            E2(AA)                  =     -0.075569305853 a.u.
            E2(AB)                  =     -0.455156763344 a.u.
            E2(TOT)                 =     -0.606295375051 a.u.
            Total MP2 energy        =   -169.587347128768 a.u.
            ------------------------------------------------
   Largest T2 amplitudes for spin case AB:
       _       _                 _       _                 _       _
   i   j   a   b             i   j   a   b             i   j   a   b
-----------------------------------------------------------------------------
[ 12  12  93  93]-0.07355 [ 11  11  93  93]-0.03059 [ 12  12  95  93]-0.02491
[ 12  12  93  95]-0.02491 [ 12  12  95  95]-0.02298 [ 12  11  93  93]-0.01788
[ 11  12  93  93]-0.01788 [ 12  10  93  24]-0.01628 [ 10  12  24  93]-0.01628
[ 10  10  19  19]-0.01489 [  6   6  21  21]-0.01485 [  9  12  26  93]-0.01485
[ 12   9  93  26]-0.01485 [ 12  10  93  20]-0.01477 [ 10  12  20  93]-0.01477
-----------------------------------------------------------------------------
   Norm of T2AB vector (  1088000 symmetry allowed elements):  0.3517664116.
-----------------------------------------------------------------------------
 @CHECKOUT-I, Total execution time (CPU/WALL):        0.48/       1.24 seconds.
--executable xintprc finished with status     0 in        1.45 seconds (walltime).
  calling xecc 
 --invoking executable--
/home/orgChemistry/bin/cfour_v21/bin/xecc
 @GETMEM-I,  Allocated    4768 MB of main memory.
 CCSD(T) energy will be calculated.
 AO based algorithm is used. 
   Frozen core orbitals in analytic derivative calculation
 Largest T2 amplitudes for spin case AB:
        _       _                 _       _                 _       _
    i   j   a   b             i   j   a   b             i   j   a   b
 -----------------------------------------------------------------------------
 [ 12  12  93  93]-0.07355 [ 11  11  93  93]-0.03059 [ 12  12  95  93]-0.02491
 [ 12  12  93  95]-0.02491 [ 12  12  95  95]-0.02298 [ 12  11  93  93]-0.01788
 [ 11  12  93  93]-0.01788 [ 12  10  93  24]-0.01628 [ 10  12  24  93]-0.01628
 [ 10  10  19  19]-0.01489 [  6   6  21  21]-0.01485 [  9  12  26  93]-0.01485
 [ 12   9  93  26]-0.01485 [ 12  10  93  20]-0.01477 [ 10  12  20  93]-0.01477
 -----------------------------------------------------------------------------
 Norm of T2AB vector (  1088000 symmetry allowed elements):  0.3517664116.
 -----------------------------------------------------------------------------
 The total correlation energy is -0.606295375051 a.u.
 Resorts of amplitudes and integrals (CPU/WALL):       0.03/       0.06 seconds.
 Starting iterative solution of the CC equations.
 The DIIS procedure is used to accelerate convergence.
 5 expansion vectors are used in the DIIS extrapolation.
 Convergence criterium is 10**(-10).
 Maximum number of iterations is 100.
 >>>>>>>>>>>>>>>>>>>>>>>>>>>>>>>>>>>>>>>>>>>>>>>>>>>>>>>>>>>>>>>>>>>>>>>>>>>>>>>
 Iteration Nr.   1 started:
 Generation of Intermediates required (CPU/WALL):      0.38/       0.65 seconds.
 Transformation of t(ab,ij) amplitudes required    0.0 seconds.
 Contraction of t(mu nu,ij) with AO integrals required    2.6 seconds.
 Backtransformation of t(mu nu,ij) increments required    0.0 seconds.
 Construction of Hbar required (CPU/WALL):             2.94/       3.30 seconds.
   Frozen core orbitals in analytic derivative calculation
 Amplitude changes are:
 -------------------------------------------------------------------
              Spin      RMS          Max.      Max. change for
  Amplitude   Case     Change       Change       i    j    a    b
 -------------------------------------------------------------------
     T1        AA    0.0000544208 0.0287751908   11        93
     T2        AB    0.0000000426 0.0045156175   11   11   93   93
 -------------------------------------------------------------------
 The total correlation energy is -0.600035267668 a.u.
 Convergence information after     1 iterations: 
 Largest element of residual vector :  0.28775191E-01.
 Largest element of DIIS residual   :  0.28775191E-01.
 Iteration Nr.   1 required (CPU/WALL):                3.41/       4.16 seconds.
 >>>>>>>>>>>>>>>>>>>>>>>>>>>>>>>>>>>>>>>>>>>>>>>>>>>>>>>>>>>>>>>>>>>>>>>>>>>>>>>
 Iteration Nr.   2 started:
 Generation of Intermediates required (CPU/WALL):      0.37/       0.68 seconds.
 Transformation of t(ab,ij) amplitudes required    0.0 seconds.
 Contraction of t(mu nu,ij) with AO integrals required    2.7 seconds.
 Backtransformation of t(mu nu,ij) increments required    0.0 seconds.
 Construction of Hbar required (CPU/WALL):             2.96/       3.33 seconds.
   Frozen core orbitals in analytic derivative calculation
 Amplitude changes are:
 -------------------------------------------------------------------
              Spin      RMS          Max.      Max. change for
  Amplitude   Case     Change       Change       i    j    a    b
 -------------------------------------------------------------------
     T1        AA    0.0000065216 0.0020278497   12        93
     T2        AB    0.0000000224-0.0110867990   12   12   93   93
 -------------------------------------------------------------------
 The total correlation energy is -0.616380702818 a.u.
 Convergence information after     2 iterations: 
 Largest element of residual vector : -0.11086799E-01.
 Largest element of DIIS residual   : -0.98445227E-02.
 Iteration Nr.   2 required (CPU/WALL):                3.46/       4.28 seconds.
 >>>>>>>>>>>>>>>>>>>>>>>>>>>>>>>>>>>>>>>>>>>>>>>>>>>>>>>>>>>>>>>>>>>>>>>>>>>>>>>
 Iteration Nr.   3 started:
 Generation of Intermediates required (CPU/WALL):      0.37/       0.64 seconds.
 Transformation of t(ab,ij) amplitudes required    0.0 seconds.
 Contraction of t(mu nu,ij) with AO integrals required    2.7 seconds.
 Backtransformation of t(mu nu,ij) increments required    0.0 seconds.
 Construction of Hbar required (CPU/WALL):             2.95/       3.37 seconds.
   Frozen core orbitals in analytic derivative calculation
 Amplitude changes are:
 -------------------------------------------------------------------
              Spin      RMS          Max.      Max. change for
  Amplitude   Case     Change       Change       i    j    a    b
 -------------------------------------------------------------------
     T1        AA    0.0000092057 0.0061935143   11        93
     T2        AB    0.0000000069-0.0029506231   12   12   93   93
 -------------------------------------------------------------------
 The total correlation energy is -0.616095528505 a.u.
 Convergence information after     3 iterations: 
 Largest element of residual vector :  0.61935143E-02.
 Largest element of DIIS residual   :  0.39653904E-02.
 Iteration Nr.   3 required (CPU/WALL):                3.48/       4.34 seconds.
 >>>>>>>>>>>>>>>>>>>>>>>>>>>>>>>>>>>>>>>>>>>>>>>>>>>>>>>>>>>>>>>>>>>>>>>>>>>>>>>
 Iteration Nr.   4 started:
 Generation of Intermediates required (CPU/WALL):      0.37/       0.63 seconds.
 Transformation of t(ab,ij) amplitudes required    0.0 seconds.
 Contraction of t(mu nu,ij) with AO integrals required    2.7 seconds.
 Backtransformation of t(mu nu,ij) increments required    0.0 seconds.
 Construction of Hbar required (CPU/WALL):             2.95/       3.32 seconds.
   Frozen core orbitals in analytic derivative calculation
 Amplitude changes are:
 -------------------------------------------------------------------
              Spin      RMS          Max.      Max. change for
  Amplitude   Case     Change       Change       i    j    a    b
 -------------------------------------------------------------------
     T1        AA    0.0000017875 0.0007953870   12        93
     T2        AB    0.0000000022-0.0012293699   12   12   93   93
 -------------------------------------------------------------------
 The total correlation energy is -0.617864457910 a.u.
 Convergence information after     4 iterations: 
 Largest element of residual vector : -0.12293699E-02.
 Largest element of DIIS residual   :  0.71928338E-03.
 Iteration Nr.   4 required (CPU/WALL):                3.51/       4.32 seconds.
 >>>>>>>>>>>>>>>>>>>>>>>>>>>>>>>>>>>>>>>>>>>>>>>>>>>>>>>>>>>>>>>>>>>>>>>>>>>>>>>
 Iteration Nr.   5 started:
 Generation of Intermediates required (CPU/WALL):      0.37/       0.63 seconds.
 Transformation of t(ab,ij) amplitudes required    0.0 seconds.
 Contraction of t(mu nu,ij) with AO integrals required    2.6 seconds.
 Backtransformation of t(mu nu,ij) increments required    0.0 seconds.
 Construction of Hbar required (CPU/WALL):             2.92/       3.28 seconds.
   Frozen core orbitals in analytic derivative calculation
 Amplitude changes are:
 -------------------------------------------------------------------
              Spin      RMS          Max.      Max. change for
  Amplitude   Case     Change       Change       i    j    a    b
 -------------------------------------------------------------------
     T1        AA    0.0000010371 0.0007660888   11        93
     T2        AB    0.0000000008-0.0004469446   12   12   93   93
 -------------------------------------------------------------------
 The total correlation energy is -0.618092614048 a.u.
 Convergence information after     5 iterations: 
 Largest element of residual vector :  0.76608875E-03.
 Largest element of DIIS residual   :  0.23213580E-03.
 Iteration Nr.   5 required (CPU/WALL):                3.52/       4.35 seconds.
 Largest T1 amplitudes for spin case AA:
    i       a                 i       a                 i       a    
 -----------------------------------------------------------------------------
 [ 11      93    ] 0.03806 [ 12      94    ] 0.01611 [ 12      95    ]-0.01137
 [ 10      14    ] 0.01101 [ 11      94    ] 0.01095 [ 10      16    ]-0.00992
 [ 10      15    ]-0.00866 [ 12      93    ] 0.00828 [ 12     100    ]-0.00757
 [ 12     101    ] 0.00718 [ 10      22    ] 0.00670 [  7      19    ]-0.00541
 [  9      13    ]-0.00509 [  9      14    ] 0.00500 [ 10      13    ]-0.00494
 -----------------------------------------------------------------------------
 Norm of T1AA vector (      880 symmetry allowed elements):  0.0594793128.
 -----------------------------------------------------------------------------
 Largest T2 amplitudes for spin case AB:
        _       _                 _       _                 _       _
    i   j   a   b             i   j   a   b             i   j   a   b
 -----------------------------------------------------------------------------
 [ 12  12  93  93]-0.09116 [ 12  12  95  93]-0.03095 [ 12  12  93  95]-0.03095
 [ 11  11  93  93]-0.03094 [ 12  11  93  93]-0.02416 [ 11  12  93  93]-0.02416
 [ 12  12  95  95]-0.02297 [  6   6  21  21]-0.01696 [ 10  10  19  19]-0.01633
 [ 12  12  97  93]-0.01576 [ 12  12  93  97]-0.01576 [  6   6  93  93]-0.01569
 [ 10  10  93  93]-0.01527 [ 12  10  93  24]-0.01457 [ 10  12  24  93]-0.01457
 -----------------------------------------------------------------------------
 Norm of T2AB vector (  1088000 symmetry allowed elements):  0.3833391009.
 -----------------------------------------------------------------------------
 >>>>>>>>>>>>>>>>>>>>>>>>>>>>>>>>>>>>>>>>>>>>>>>>>>>>>>>>>>>>>>>>>>>>>>>>>>>>>>>
 Iteration Nr.   6 started:
 Generation of Intermediates required (CPU/WALL):      0.37/       0.62 seconds.
 Transformation of t(ab,ij) amplitudes required    0.0 seconds.
 Contraction of t(mu nu,ij) with AO integrals required    2.7 seconds.
 Backtransformation of t(mu nu,ij) increments required    0.0 seconds.
 Construction of Hbar required (CPU/WALL):             2.96/       3.32 seconds.
   Frozen core orbitals in analytic derivative calculation
 Amplitude changes are:
 -------------------------------------------------------------------
              Spin      RMS          Max.      Max. change for
  Amplitude   Case     Change       Change       i    j    a    b
 -------------------------------------------------------------------
     T1        AA    0.0000002820 0.0001570555   11        93
     T2        AB    0.0000000002-0.0000551928   12   12   93   93
 -------------------------------------------------------------------
 The total correlation energy is -0.618106277254 a.u.
 Convergence information after     6 iterations: 
 Largest element of residual vector :  0.15705545E-03.
 Largest element of DIIS residual   :  0.73408561E-04.
 Iteration Nr.   6 required (CPU/WALL):                3.57/       4.37 seconds.
 >>>>>>>>>>>>>>>>>>>>>>>>>>>>>>>>>>>>>>>>>>>>>>>>>>>>>>>>>>>>>>>>>>>>>>>>>>>>>>>
 Iteration Nr.   7 started:
 Generation of Intermediates required (CPU/WALL):      0.37/       0.61 seconds.
 Transformation of t(ab,ij) amplitudes required    0.0 seconds.
 Contraction of t(mu nu,ij) with AO integrals required    2.7 seconds.
 Backtransformation of t(mu nu,ij) increments required    0.0 seconds.
 Construction of Hbar required (CPU/WALL):             2.95/       3.31 seconds.
   Frozen core orbitals in analytic derivative calculation
 Amplitude changes are:
 -------------------------------------------------------------------
              Spin      RMS          Max.      Max. change for
  Amplitude   Case     Change       Change       i    j    a    b
 -------------------------------------------------------------------
     T1        AA    0.0000000940 0.0000522363   11        93
     T2        AB    0.0000000001 0.0000168826   11   11   93   93
 -------------------------------------------------------------------
 The total correlation energy is -0.618107739581 a.u.
 Convergence information after     7 iterations: 
 Largest element of residual vector :  0.52236344E-04.
 Largest element of DIIS residual   :  0.32051924E-04.
 Iteration Nr.   7 required (CPU/WALL):                3.55/       4.36 seconds.
[...]
 H #6 z    0.000000    0.000000    0.004168    0.000000    0.000000   -0.004416


           O #3 x      O #3 y      O #3 z      H #4 x      H #4 y      H #4 z

 O #3 x    0.433187
 O #3 y   -0.024593    0.627875
 O #3 z    0.000000    0.000000    0.043641

 H #4 x   -0.005002    0.037431    0.000000    0.067134
 H #4 y    0.003725   -0.017896    0.000000    0.012129    0.347394
 H #4 z    0.000000    0.000000    0.004773    0.000000    0.000000    0.026088

 H #5 x   -0.003151   -0.005584    0.000000    0.002825   -0.000237    0.000000
 H #5 y   -0.003129    0.002467    0.000000    0.000074    0.002006    0.000000
 H #5 z    0.000000    0.000000    0.017007    0.000000    0.000000   -0.007500

 H #6 x   -0.061061   -0.102008    0.000000   -0.005545    0.002536    0.000000
 H #6 y   -0.051273   -0.474869    0.000000    0.003425    0.000455    0.000000
 H #6 z    0.000000    0.000000   -0.015935    0.000000    0.000000    0.005326


           H #5 x      H #5 y      H #5 z      H #6 x      H #6 y      H #6 z

 H #5 x    0.320588
 H #5 y   -0.184719    0.170618
 H #5 z    0.000000    0.000000    0.025316

 H #6 x    0.000197   -0.002132    0.000000    0.059891
 H #6 y   -0.001810    0.000004    0.000000    0.049197    0.506477
 H #6 z    0.000000    0.000000   -0.000951    0.000000    0.000000    0.011808




                           Total dipole moment
                           -------------------

                               au             Debye

                    x     -0.10154321     -0.25809714
                    y      0.39590084      1.00627974

  Conversion factor used: 1 a.u. =   2.54174691 Debye 



                     Total dipole moment derivatives
                     -------------------------------


           Symmetry 1
                              Ex             Ey

               C #1 x     1.55613186    -0.09467372
               C #1 y    -0.17739927     0.59377549
               N #2 x    -0.85909203    -0.01574122
               N #2 y    -0.41176730    -0.41618371
               O #3 x    -1.17336335     0.16878202
               O #3 y     0.50308824    -0.40037709
               H #4 x     0.02006374    -0.03421157
               H #4 y    -0.01764663    -0.10929859
               H #5 x     0.17206836     0.08090288
               H #5 y     0.18307424     0.10887790
               H #6 x     0.28419141    -0.10505839
               H #6 y    -0.07934928     0.22320600

           Symmetry 2
                              Ez

               C #1 z     0.13005397
               N #2 z    -0.46551907
               O #3 z    -0.37612102
               H #4 z     0.16162256
               H #5 z     0.23292513
               H #6 z     0.31703844



                       Ex          Ey          Ez

      C #1    x    1.556132   -0.094674    0.000000
      C #1    y   -0.177399    0.593775    0.000000
      C #1    z    0.000000    0.000000    0.130054

      N #2    x   -0.859092   -0.015741    0.000000
      N #2    y   -0.411767   -0.416184    0.000000
      N #2    z    0.000000    0.000000   -0.465519

      O #3    x   -1.173363    0.168782    0.000000
      O #3    y    0.503088   -0.400377    0.000000
      O #3    z    0.000000    0.000000   -0.376121

      H #4    x    0.020064   -0.034212    0.000000
      H #4    y   -0.017647   -0.109299    0.000000
      H #4    z    0.000000    0.000000    0.161623

      H #5    x    0.172068    0.080903    0.000000
      H #5    y    0.183074    0.108878    0.000000
      H #5    z    0.000000    0.000000    0.232925

      H #6    x    0.284191   -0.105058    0.000000
      H #6    y   -0.079349    0.223206    0.000000
      H #6    z    0.000000    0.000000    0.317038

 @CHECKOUT-I, Total execution time (CPU/WALL):       53.85/      54.71 seconds.
--executable xvdint finished with status     0 in       54.72 seconds (walltime).
 --invoking executable--
/home/orgChemistry/bin/cfour_v21/bin/xjoda
  igrd and ihes are                      0                     0
  gradient from JOBARC 
   0.000000095836146   0.000000133699794   0.000000000000000
  -0.000000187491638  -0.000000260585437   0.000000000000000
   0.000000251841468   0.000000090668012   0.000000000000000
   0.000000001115069   0.000000157344217   0.000000000000000
  -0.000000149514355   0.000000079855872   0.000000000000000
  -0.000000011786864  -0.000000200982437   0.000000000000000
 
  masses used (in AMU) in vibrational analysis: 
  12.000000000     14.003074002     15.994914630
   1.007825035      1.007825035      1.007825035
                     Normal Coordinate Analysis
  ----------------------------------------------------------------
    Irreducible         Harmonic       Infrared        Type 
   Representation       Frequency      Intensity 
  ----------------------------------------------------------------
                       (cm-1)         (km/mol)
  ----------------------------------------------------------------
      ----                 0.4126i        0.1907      TRANSLATION
      ----                 0.2293i        0.1918      TRANSLATION
      ----                 0.2178i        0.4683      TRANSLATION
      ----                 0.4675         1.2260       ROTATION  
      ----                 0.6375         4.3591       ROTATION  
      ----                 0.7662         0.5084       ROTATION  
        A'               584.5843        49.2852       VIBRATION 
       A''               614.1259       162.2412       VIBRATION 
       A''               836.4123        31.4125       VIBRATION 
       A''              1049.8452         0.3501       VIBRATION 
        A'              1079.0968       179.9312       VIBRATION 
        A'              1196.9833        84.5521       VIBRATION 
        A'              1385.3729         0.0458       VIBRATION 
        A'              1404.7367        25.4126       VIBRATION 
        A'              1722.3083       227.5865       VIBRATION 
        A'              3140.3662        24.9558       VIBRATION 
        A'              3532.7470         5.6734       VIBRATION 
        A'              3768.5513        51.7414       VIBRATION 
  ----------------------------------------------------------------
 
 
                                   Normal Coordinates 

                A'                       A''                       A''
               584.58                    614.13                    836.41 
             VIBRATION                 VIBRATION                 VIBRATION 
 C      0.034 0.4570 -0.0000    0.0000  0.0000  0.2011   -0.0000  0.0000  0.4477
 N      0.520-0.1512 -0.0000    0.0000 -0.0000 -0.2076    0.0000  0.0000  0.1058
 O     -0.397-0.2085  0.0000   -0.0000 -0.0000 -0.2879   -0.0000 -0.0000 -0.2411
 H     -0.002 0.1310 -0.0000   -0.0000  0.0000  0.1521    0.0000 -0.0000 -0.2221
 H     -0.049-0.3064 -0.0000   -0.0000 -0.0000  0.1963   -0.0000 -0.0000 -0.8226
 H     -0.426-0.0072 -0.0000   -0.0000 -0.0000  0.8786    0.0000 -0.0000  0.0658

               A''                        A'                        A'
              1049.85                   1079.10                   1196.98 
             VIBRATION                 VIBRATION                 VIBRATION 
 C      0.000 0.0000  0.4260    0.2405 -0.2646  0.0000    0.0961 -0.1479 -0.0000
 N      0.000 0.0000 -0.2519    0.2363 -0.0994  0.0000    0.1391  0.1823 -0.0000
 O     -0.000 0.0000 -0.0125   -0.5277  0.2009  0.0000   -0.4183  0.0769  0.0000
 H      0.000-0.0000 -0.7625   -0.0591 -0.0742  0.0000    0.4813 -0.0631  0.0000
 H      0.000-0.0000  0.3995    0.4501  0.5243 -0.0000   -0.2305 -0.3511 -0.0000
 H      0.000-0.0000 -0.1184    0.0008  0.0335  0.0000    0.5653 -0.0612  0.0000

                A'                        A'                        A'
              1385.37                   1404.74                   1722.31 
             VIBRATION                 VIBRATION                 VIBRATION 
 C      0.234-0.2253  0.0000    0.2280 -0.4633  0.0000    0.7173  0.2825 -0.0000
 N     -0.225-0.0917 -0.0000    0.1360  0.4134 -0.0000   -0.4492 -0.2596  0.0000
 O      0.038 0.2891 -0.0000   -0.0712  0.1125 -0.0000   -0.1464 -0.0131  0.0000
 H      0.583-0.0900 -0.0000   -0.5511 -0.1186 -0.0000   -0.2272  0.1300  0.0000
 H     -0.097-0.0802  0.0000   -0.2327 -0.3179 -0.0000   -0.1403 -0.0609 -0.0000
 H     -0.606 0.1375 -0.0000   -0.2262  0.0462  0.0000    0.1499 -0.0241  0.0000

                A'                        A'                        A'
              3140.37                   3532.75                   3768.55 
             VIBRATION                 VIBRATION                 VIBRATION 
 C      0.027 0.2902 -0.0000    0.0084  0.0326 -0.0000    0.0010 -0.0145 -0.0000
 N     -0.005-0.0181  0.0000   -0.2249  0.1288  0.0000    0.0005 -0.0005 -0.0000
 O     -0.001-0.0051 -0.0000    0.0020 -0.0060  0.0000   -0.0269 -0.2344  0.0000
 H     -0.044-0.9542 -0.0000    0.0010 -0.0346  0.0000    0.0016  0.0161 -0.0000
 H     -0.036 0.0235  0.0000    0.7953 -0.5457 -0.0000   -0.0113  0.0049 -0.0000
 H      0.010 0.0172 -0.0000    0.0051  0.0113 -0.0000    0.1114  0.9650  0.0000
            Gradient vector in normal coordinate representation
         ----------------------------------------------------------
   i    W(I)     dE/dQ(i)     dE/dq      dE/dq     [dE/dQ(i)]/w(i)
                              (cm-1)      (eV)        (relative)
         ----------------------------------------------------------
    7   584.58 -0.0000000167     -0.00166     -0.00000  -0.0000000000
    8   614.13 -0.0000000000     -0.00000     -0.00000  -0.0000000000
    9   836.41  0.0000000000      0.00000      0.00000  -0.0000000000
   10  1049.85 -0.0000000000     -0.00000     -0.00000  -0.0000000000
   11  1079.10 -0.0000000809     -0.00593     -0.00000  -0.0000000000
   12  1196.98 -0.0000000447     -0.00311     -0.00000  -0.0000000000
   13  1385.37 -0.0000000013     -0.00008     -0.00000  -0.0000000000
   14  1404.74 -0.0000000655     -0.00421     -0.00000  -0.0000000000
   15  1722.31  0.0000001011      0.00586      0.00000  -0.0000000000
   16  3140.37 -0.0000001326     -0.00570     -0.00000  -0.0000000000
   17  3532.75 -0.0000001658     -0.00672     -0.00000  -0.0000000000
   18  3768.55 -0.0000001974     -0.00775     -0.00000  -0.0000000000
         ----------------------------------------------------------
 
                      Normal modes in internal coordinates 
---------------------------------------------------------------------------
              0.413         0.229         0.218         0.468         0.637
---------------------------------------------------------------------------
R12       -0.000000     -0.000000     -0.000000      0.000000     -0.000000
R13       -0.000000      0.000000      0.000000     -0.000000     -0.000000
A213      -0.000000      0.000000      0.000000      0.000000      0.000000
R14        0.000000      0.000000      0.000000     -0.000000     -0.000000
A314      -0.000000     -0.000000     -0.000000     -0.000000      0.000000
D2314      0.000000     -0.000000      0.000000     -0.000000     -0.000000
R25       -0.000000     -0.000000     -0.000000     -0.000000     -0.000000
A125      -0.000000      0.000000      0.000000      0.000000      0.000000
D3125      0.000000     -0.000000      0.000000      0.000000     -0.000000
R36        0.000000     -0.000000     -0.000000     -0.000000     -0.000000
A136      -0.000000      0.000000      0.000000      0.000000     -0.000000
D2136      0.000000     -0.000000      0.000000     -0.000000     -0.000001
---------------------------------------------------------------------------
              0.766       584.584       614.126       836.412      1049.845
---------------------------------------------------------------------------
R12        0.000000     -0.046289     -0.000000     -0.000000     -0.000000
R13       -0.000000     -0.104241     -0.000000     -0.000000     -0.000000
A213      -0.000000     -0.743166     -0.000000      0.000000      0.000000
R14       -0.000000     -0.009187     -0.000000      0.000000      0.000000
A314       0.000000      0.383685      0.000000     -0.000000     -0.000000
D2314      0.000000     -0.000000      0.090019      0.455385      0.952198
R25        0.000000     -0.018736     -0.000000      0.000000     -0.000000
A125      -0.000000      0.342136      0.000000     -0.000000      0.000000
D3125      0.000000      0.000000     -0.103216      0.845205     -0.282921
R36        0.000000      0.018093      0.000000      0.000000     -0.000000
A136      -0.000000     -0.411900      0.000000      0.000000      0.000000
D2136      0.000000      0.000000     -0.990577     -0.279737     -0.115216
---------------------------------------------------------------------------
           1079.097      1196.983      1385.373      1404.737      1722.308
---------------------------------------------------------------------------
R12       -0.054456     -0.109767      0.163824     -0.216214      0.679391
R13       -0.567129     -0.272428     -0.214692     -0.275613     -0.358110
A213       0.076089      0.056495      0.164342      0.262418     -0.087164
R14       -0.013116      0.014232      0.013766     -0.042947      0.040428
A314       0.119027     -0.411529     -0.569631      0.491439      0.537479
D2314     -0.000000     -0.000000      0.000000     -0.000000     -0.000000
R25        0.032617     -0.037708     -0.005400     -0.069866      0.040251
A125      -0.795696      0.520252      0.154265      0.682772      0.050419
D3125     -0.000000      0.000000     -0.000000      0.000000      0.000000
R36       -0.007710     -0.038381      0.054655      0.025854     -0.013906
A136       0.144964      0.683686     -0.740660     -0.305518      0.328199
D2136      0.000000      0.000000     -0.000000      0.000000     -0.000000
---------------------------------------------------------------------------
           3140.366      3532.747      3768.551
---------------------------------------------------------------------------
R12        0.054969      0.036757     -0.002065
R13        0.026232      0.002633      0.015489
A213      -0.057821      0.018425     -0.018667
R14       -0.994025     -0.042515      0.019743
A314       0.025017      0.003473      0.020056
D2314      0.000000     -0.000000     -0.000000
R25        0.042991     -0.998135      0.011794
A125      -0.028435      0.003593      0.002762
D3125     -0.000000      0.000000      0.000000
R36       -0.019120     -0.012889     -0.999234
A136       0.034818      0.005490      0.000809
D2136      0.000000      0.000000     -0.000000
---------------------------------------------------------------------------
 
  ----------------------------------------------------------------
                    Dipole Moment Function
                   (Normal Coordinate Basis)
  ----------------------------------------------------------------
    Mode     Symmetry    d(Mu(x))/dQ   d(Mu(y))/dQ   d(Mu(z))/dQ
  ----------------------------------------------------------------
     Q7          A'       -0.207054      0.087660     -0.000000
     Q8         A''       -0.000000      0.000000      0.407951
     Q9         A''        0.000000     -0.000000     -0.179506
     Q10        A''        0.000000     -0.000000     -0.018951
     Q11         A'        0.428807      0.026352      0.000000
     Q12         A'        0.203222     -0.213149      0.000000
     Q13         A'        0.003002      0.006165      0.000000
     Q14         A'       -0.089967     -0.134066     -0.000000
     Q15         A'        0.483080      0.009339     -0.000000
     Q16         A'        0.016117      0.159183     -0.000000
     Q17         A'        0.076216      0.003275     -0.000000
     Q18         A'       -0.066461      0.220586     -0.000000
  ----------------------------------------------------------------
---------------------------------------------------------------------------
------------------------------------------------------------
        Parameter                (MHz)                 (CM-1)
------------------------------------------------------------
 
           R6                -.115888E-03           -.386562E-08
           R5                0.194348E-02           0.648276E-07
           SI                            0.750101E+02
 
  A-reduced centrifugal distortion parameters (Ir representation) 
 
           DJ                0.800404E-02           0.266986E-06
           DK                0.125603E+01           0.418967E-04
           DJK               -.651947E-01           -.217466E-05
           DELJ              0.823582E-02           0.274717E-06
           DELK              0.125719E+01           0.419353E-04
           DELJK             -.665853E-01           -.222105E-05
           delJ              0.162997E-02           0.543701E-07
           delK              0.308842E-01           0.103019E-05
 
  S-reduced centrifugal distortion parameters (Ir representation) 
 
           DJ                0.802995E-02           0.267850E-06
           DK                0.125616E+01           0.419010E-04
           DJK               -.653501E-01           -.217985E-05
           D1                -.162997E-02           -.543701E-07
           D2                -.102933E-03           -.343349E-08
------------------------------------------------------------
   Rotationally projected vibrational frequencies 
            1               0.0000i
            2               0.0000i
            3               0.0000i
            4               0.0000 
            5               0.0000 
            6               0.0000 
            7             584.5843 
            8             614.1259 
            9             836.4123 
           10            1049.8452 
           11            1079.0968 
           12            1196.9833 
           13            1385.3729 
           14            1404.7367 
           15            1722.3083 
           16            3140.3662 
           17            3532.7470 
           18            3768.5513 
  Zero-point energy:   29.0419 kcal/mol =  121.5115 kJ/mol =   10157.565 cm-1 
 
  Finite temperature thermodynamic corrections:
=======================================================
Temperature     Entropy       Enthalpy     Gibbs Energy
    (K)        (J/(mol K))    (kJ/mol)      (kJ/mol) 
=======================================================
    298.15      250.6114       11.1788      -63.5410
    100.00      208.8283        3.3285      -17.5544
    200.00      233.2884        6.8878      -39.7699
    300.00      250.9145       11.2694      -64.0049
    400.00      266.5462       16.7292      -89.8893
    500.00      280.9886       23.2193     -117.2750
    600.00      294.3920       30.5828     -146.0524
    700.00      306.8354       38.6634     -176.1214
    800.00      318.4095       47.3371     -207.3905
    900.00      329.2094       56.5110     -239.7775
   1000.00      339.3237       66.1141     -273.2095
   1100.00      348.8292       76.0902     -307.6220
   1200.00      357.7916       86.3926     -342.9573
   1300.00      366.2662       96.9820     -379.1640
   1400.00      374.3002      107.8245     -416.1958
   1500.00      381.9342      118.8905     -454.0107
   1600.00      389.2031      130.1544     -492.5705
   1700.00      396.1377      141.5938     -531.8402
   1800.00      402.7650      153.1892     -571.7878
   1900.00      409.1090      164.9234     -612.3838
   2000.00      415.1912      176.7816     -653.6009
=======================================================
 @CHECKOUT-I, Total execution time (CPU/WALL):        0.03/       0.13 seconds.
--executable xjoda finished with status     0 in        0.14 seconds (walltime).
  The final electronic energy is      -169.625372673383794 a.u. 
  This computation required                         7420.32 seconds (walltime).

real	123m40.771s
user	80m18.129s
sys	17m30.508s
