 --invoking executable--
/home/orgChemistry/bin/cfour_v21/bin/xjoda


   *************************************************************************
         <<<     CCCCCC     CCCCCC   |||     CCCCCC     CCCCCC   >>>
       <<<      CCC        CCC       |||    CCC        CCC         >>>
      <<<      CCC        CCC        |||   CCC        CCC            >>>
    <<<        CCC        CCC        |||   CCC        CCC              >>>
      <<<      CCC        CCC        |||   CCC        CCC            >>>
       <<<      CCC        CCC       |||    CCC        CCC         >>>
         <<<     CCCCCC     CCCCCC   |||     CCCCCC     CCCCCC   >>>
   *************************************************************************

     ****************************************************************
     * CFOUR Coupled-Cluster techniques for Computational Chemistry *
     ****************************************************************
 

   Department of Chemistry                Institut fuer Physikalische Chemie
   University of Florida                  Universitaet Mainz
   Gainesville, FL 32611, USA             D-55099 Mainz, Germany

   Department of Chemistry                Fakultaet fuer Chemie und Biowiss.
   Johns Hopkins University               Karlsruher Institut fuer Technologie
   Baltimore, MD 21218, USA               D-76131 Karlsruhe, Germany

   Department of Chemistry                Department of Physical Chemistry
   Southern Methodist University          Eotvos Lorand University
   Dallas, TX 75275, USA                  H-1053 Budapest, Hungary

 
                       Version 2.1
 
                     node2-206                                         
                     Wed Jan 27 20:01:21 CET 2021                      
                     integer*8 version is running
 
********************************************************************************
*                          Input from ZMAT file                                *
********************************************************************************
title                                                                           
C                                                                               
N 1 R12*                                                                        
H 1 R13* 2 A213*                                                                
H 1 R14* 2 A214* 3 D3214*                                                       
O 2 R25* 1 A125* 3 D3125*                                                       
H 5 R56* 2 A256* 1 D1256*                                                       
                                                                                
R12           =        1.26521085                                               
R13           =        1.09213190                                               
A213          =        123.49916214                                             
R14           =        1.08098971                                               
A214          =        117.13009588                                             
D3214         =        180.00000000                                             
R25           =        1.37691662                                               
A125          =        117.01126441                                             
D3125         =        0.00000000                                               
R56           =        0.97331654                                               
A256          =        109.28057239                                             
D1256         =        0.0000000000                                             
                                                                                
*CFOUR(CALC=CCSD(T),BASIS=cc-pVTZ,FROZEN_CORE=1                                 
       CONVERGENCE=8                                                            
       MEMORY_SIZE=5000,MEM_UNIT=MB,ABCDTYPE=AOBASIS,CC_PROG=ECC                
       MULTIPLICITY=1,CHARGE=0                                                  
       SCF_CONV=8,CC_CONV=10)                                                   
                                                                                
********************************************************************************
    -------------------------------------------------------------------
                    CFOUR Control Parameters 
    -------------------------------------------------------------------
        External           Internal           Value            Units
          Name               Name
    -------------------------------------------------------------------
       ABCDTYPE             IABCDT         AOBASIS     [  2]    ***   
       ANHARMONIC           IANHAR         OFF         [  0]    ***   
       ANH_ALGORIT          IANALG         STANDARD    [  0]    ***   
       ANH_DERIVAT          IANDER         SECOND      [  1]    ***   
       ANH_MODE             ANHMOD         VIBRATION   [  0]    ***   
       ANH_STEPSIZ          ICUBST             50000          x 10-6  
       ANH_SYMMETR          IANHSM         ABELIAN     [  0]    ***   
       AO_LADDERS           IAOLAD         SINGLEPASS  [  1]    ***   
       AV_SCF               IAVSCF         OFF         [  0]    ***   
       BASIS                IBASIS         PVTZ        [ 14]    ***   
       BOTHVECTORS          BOTHVC         OFF         [  0]    ***   
       BOX_POTENT           IPIAB          OFF         [  0]    ***   
       BREIT                IBREIT         OFF         [  0]    ***   
       BRUCK_CONV           IBRTOL          10D-  4             ***   
       BRUECKNER            IBRKNR         OFF         [  0]    ***   
       BUFFERSIZE           IBUFFS              4096            ***   
       CACHE_RECS           ICHREC             10               ***   
       CALCLEVEL            ICLLVL         CCSD(T)     [ 22]    ***   
       CCORBOPT             ICCORB         OFF         [  0]  x 0.01  
       CC_CONV              ICCCNV          10D- 10             ***   
       CC_EXPORDER          ICCEOR              5               ***   
       CC_EXTRAPOL          ICCEXT         DIIS        [  1]    ***   
       CC_GUESS             ICCGES         MP2         [  0]    ***   
       CC_MAXCYC            ICCCYC            100              cycles 
       CC_PROGRAM           ICCPRO         ECC         [  1]    ***   
       CHARGE               ICHRGE              0               ***   
       CHOLESKY             ICHOLE         OFF         [  0]    ***   
       CIS_CONV             ICISTL              5               ***   
       COMM_SIZE            IPSIZE            ***               ***   
       CONSTANT             ICONST         OLD         [  1]    ***   
       CONTINUUM            ICONTU         NONE        [  0]    ***   
       CONTRACTION          ICNTYP         GENERAL     [  1]    ***   
       COORDINATES          ICOORD         INTERNAL    [  0]    ***   
       CPHF_CONVER          ICPHFT          10D- 16             ***   
       CPHF_MAXCYC          ICPHFC             64              cycles 
       CUBIC                ICUBIC         OFF         [  0]    ***   
       CURVILINEAR          ICURVY         OFF         [  0]    ***   
       DBOC                 IDBOC          OFF         [  0]    ***   
       DCT                  IDCT           OFF         [  0]    ***   
       DERIV_LEV            IDRLVL         FIRST       [  1]    ***   
       DEVMEM_SIZE          IDVMEM         *********           MByte  
       DIAG_MRCC            IEOMST          10D-  0             ***   
       DIFF_TYPE            IDIFTY         RELAXED     [  0]    ***   
       DIRECT               IDIRCT         OFF         [  0]    ***   
       DROPMO               IDRPMO      NONE         
       ECP                  IECP           OFF         [  0]    ***   
       EIGENVECTOR          IVEC                1               ***   
       EL_ANHARM            IELANH         OFF         [  0]    ***   
       EOMFOLLOW            IEOMSR         ENERGY      [  0]    ***   
       EOMIP                IEOMIP         OFF         [  0]    ***   
       EOMLEVEL             HBARFM         SAME        [  0]    ***   
       EOM_MRCC             IMRCCE         NEW         [  1]    ***   
       EOM_NONIT            EOMNON         OFF         [  0]    ***   
       EOM_NSING            IEOMSI          10D-  0             ***   
       EOM_NSTATES          IMRCCD         DAVIDSON    [  0]    ***   
       EOM_NTRIP            IEOMTR          10D-  0             ***   
       EOM_ORDER            IEXORD         ENERGY      [  0]    ***   
       EOM_PROPSTA          IEOMST              0               ***   
       ESTATE_CONV          IEXTOL          10D-  5             ***   
       ESTATE_DIAG          IEXDIG         ITERATIVE   [  0]    ***   
       ESTATE_LOCK          IESLOC         ON          [  1]    ***   
       ESTATE_MAXC          IEXMXC             40               ***   
       ESTATE_PROP          IEXPRP         OFF         [  0]    ***   
       EVAL_HESS            IRECAL              0            # of cyc.
       EXCITATION           IEXCIT              0               ***   
       EXCITE               IEXCIT         NONE        [  0]    ***   
       EXTERN_POT           IEXPOT         OFF         [  0]    ***   
       FCGRADNEW            IFCGNW         OFF         [  0]    ***   
       FC_FIELD             IFINFC              0             x 10-6  
       FD_CALTYPE           IFDCAL         GRADONLY    [  0]    ***   
       FD_PROJECT           IFDPRJ         OFF         [  1]    ***   
       FD_STEPSIZE          IDISFD              0            10-4 bohr
       FD_USEGROUP          IFDGRP         FULL        [  0]    ***   
       FILE_RECSIZ          IFLREC              4096           words  
       FINITE_PERT          IFIPER              0             x 10-6  
       FIXGEOM              IFIXGM         OFF         [  0]    ***   
       FOCK                 IFOCK          AO          [  1]    ***   
       FREQ_ALGORI          IVIALG         STANDARD    [  0]    ***   
       FROZEN_CORE          IFROCO         ON          [  1]    ***   
       GAMMA_ABCD           IGABCD         DIRECT      [  1]    ***   
       GAMMA_ABCI           IGABCI         STORE       [  0]    ***   
       GENBAS_1             IGNBS1              0               ***   
       GENBAS_2             IGNBS2              0               ***   
       GENBAS_3             IGNBS3              0               ***   
       GENBAS_4             IGNBS4              0               ***   
       GEO_CONV             ICONTL              8              H/bohr 
       GEO_MAXCYC           IOPTCY             50               ***   
       GEO_MAXSTEP          IMXSTP            300            millibohr
       GEO_METHOD           INR            NR          [  0]    ***   
       GIAO                 IGIAO          OFF         [  1]    ***   
       GIMIC                IGIMIC         OFF         [  0]    ***   
       GRID                 IGRID          OFF         [  0]    ***   
       GRID_ALGO            IGALGO         SERIAL      [  0]    ***   
       GUESS                IGUESS         MOREAD      [  0]    ***   
       HBAR                 IHBAR          OFF         [  0]    ***   
       HESS_TYPE            IHESTP         SCF         [  0]    ***   
       HF2_FILE             IHF2Fl         USE         [  1]    ***   
       HFSTABILITY          ISTABL         OFF         [  0]    ***   
       INCORE               INCORE         OFF         [  0]    ***   
       INPUT_MRCC           IMRCC          ON          [  1]    ***   
       INTEGRALS            INTTYP         VMOL        [  1]    ***   
       JODA_PRINT           IJPRNT              0               ***   
       KEYWORD_OUT          IDMPKW         NO          [  0]    ***   
       LINDEP_TOL           ILINDP              8               ***   
       LINEQ_CONV           IZTACN          10D-  7           cycles  
       LINEQ_EXPOR          ILMAXD              5               ***   
       LINEQ_MAXCY          ILMAXC            100               ***   
       LINEQ_TYPE           ILTYPE         DIIS        [  1]    ***   
       LOCK_ORBOCC          ILOCOC         OFF         [  0]    ***   
       MEMORY_SIZE          IMEMSZ         625000000           words  
       MEM_UNIT             IMEMU          MB          [  2]    ***   
       MRCC                 IMRCCC         OFF         [  0]    ***   
       MULTIPLICTY          IMULTP              1               ***   
       NACOUPLING           IVCOUP         OFF         [  0]    ***   
       NEGEVAL              IDIE           ABORT       [  0]    ***   
       NEWNORM              INEWNO         OFF         [  0]    ***   
       NON-HF               INONHF         OFF         [  0]    ***   
       NTOP_TAMP            ITOPT2             15               ***   
       NUC_MODEL            INUCMO         POINT       [  0]    ***   
       OCCUPATION           IOCCU   ESTIMATED BY SCF 
       OPEN-SHELL           IOPEN          SPIN-ORBITAL[  0]    ***   
       OPTVIB               IOPTVB         OFF         [  0]    ***   
       ORBITALS             IORBTP         STANDARD    [  0]    ***   
       PARALLEL             IPARAL         ON          [  1]    ***   
       PARA_INT             IPINTS         ON          [  1]    ***   
       PARA_PRINT           IPPRIN              0               ***   
       PERT_ORB             IPTORB         CANONICAL   [  1]    ***   
       POINTS               IGRDFD              0               ***   
       PRINT                IPRNT               0               ***   
       PROPS                IPROPS         OFF         [  0]    ***   
       PROP_INTEGR          IINTYP         INTERNAL    [  0]    ***   
       PSI                  IPSI           OFF         [  0]    ***   
       QC_ALG               IQCALG         FLM         [  0]    ***   
       QC_LINALG            IQCLIN         TRIDIAG     [  2]    ***   
       QC_MAXCYC            IQCMAX          10D-100           cycles  
       QC_MAXSCFCY          IQCMSC          10D- 15           cycles  
       QC_RTRUST            IQCRTR          10D-  0           x 10-3  
       QC_SKIPSCF           IQCSKI         OFF         [  0]    ***   
       QC_START             IQCSTA          10D-  1             ***   
       QRHFGUESS            IQGUES         OFF         [  0]    ***   
       QUARTIC              IQUART         OFF         [  0]    ***   
       RAMAN_INT            IRAMIN         OFF         [  0]    ***   
       RAMAN_ORB            IRAMRE         UNRELAXED   [  0]    ***   
       RDO                  IRDOFM         ON          [  1]    ***   
       REDUCE_REPR          REDREP         Ir          [  0]    ***   
       REFERENCE            IREFNC         RHF         [  0]    ***   
       RELATIVIST           IRELAT         OFF         [  0]    ***   
       RELAX_DENS           IRDENS         ON          [  1]    ***   
       RESET_FLAGS          IRESET         OFF         [  0]    ***   
       RESTART_CC           ICCRES         OFF         [  0]    ***   
       ROT_EVEC             ROTVEC              0               ***   
       SAVE_INTS            ISVINT         OFF         [  0]    ***   
       SCALE_ON             ISTCRT              0               ***   
       SCF_CONV             ISCFCV          10D-  8             ***   
       SCF_DAMPING          IDAMP               0             x 10-3  
       SCF_EXPORDE          IRPPOR              6               ***   
       SCF_EXPSTAR          IRPPLS              8               ***   
       SCF_EXTRAPO          IRPP           ON          [  1]    ***   
       SCF_MAXCYC           ISCFCY            150              cycles 
       SCF_NOSTOP           ISCFST         OFF         [  0]    ***   
       SCF_PRINT            ISCFPR              0               ***   
       SCF_PROG             ISCFPR         SCF         [  0]    ***   
       SD_FIELD             IFINSD              0             x 10-6  
       SOPERT               IPERSO         OFF         [  0]    ***   
       SPHERICAL            IDFGHI         ON          [  1]    ***   
       SPINORBIT            ISOCAL         OFF         [  0]    ***   
       SPINROTATIO          ISRCON         OFF         [  0]    ***   
       SPIN_FLIP            ISPFLP         OFF         [  0]    ***   
       SPIN_ORBIT           ISPORB         OFF         [  0]    ***   
       SPIN_SCAL            ISCSMP         OFF         [  0]    ***   
       STEEPSCALE           ISTPSC              1000          x 10-3  
       SUBGROUP             ISUBGP         DEFAULT     [  0]    ***   
       SUBGRPAXIS           ISBXYZ         X           [  0]    ***   
       SYMMETRY             ISYM           ON          [  0]    ***   
       SYM_CHECK            ISYMCK         OVERRIDE    [  1]    ***   
       T3_EXTRAPOL          IT3EXT         OFF         [  0]    ***   
       T4_EXTRAPOL          IT4EXP         OFF         [  0]    ***   
       TAMP_SUM             IEVERY              5               ***   
       TESTSUITE            ITESTS         OFF         [  0]    ***   
       THERMOCH             ITHERM         OFF         [  0]    ***   
       TOL_CHOLESK          ITOLCH          10D-  4             ***   
       TRANGRAD             IRESRM         OFF         [  0]    ***   
       TRANS_INV            ITRAIN         USE         [  0]    ***   
       TREAT_PERT           ITREAT         SIMULTANEOUS[  0]    ***   
       TRIP_ALGORI          ITRALG         NORMAL      [  0]    ***   
       UIJ_THRESHO          IUIJTH              1               ***   
       UNITS                IUNITS         ANGSTROM    [  0]    ***   
       UNOS                 IUNOS          OFF         [  0]    ***   
       UPDATE_HESS          IHUPDT         ON          [  1]    ***   
       VIBPHASE             ISETPH         STANDARD    [  0]    ***   
       VIBRATION            IVIB           NO          [  0]    ***   
       VIB_ALGORIT          IGEALG         STANDARD    [  0]    ***   
       VNATORB              IVNORB         OFF         [  0]    ***   
       VTRAN                IVTRAN         PARTIAL     [  2]    ***   
       XFIELD               IXEFLD              0             x 10-6  
       XFORM_TOL            IXFTOL          10D- 11             ***   
       YFIELD               IYEFLD              0             x 10-6  
       ZFIELD               IZEFLD              0             x 10-6  
       ZSCALE_EXP           IZEXPS         OFF         [  0]    ***   
    -------------------------------------------------------------------
   6 entries found in Z-matrix 
   Job Title : title                                                                           
   There are 12 unique internal coordinates.
   Of these, 12 will be optimized.
   User supplied Z-matrix: 
--------------------------------------------------------------------------------
       SYMBOL    BOND      LENGTH    ANGLE     ANGLE     DIHED     ANGLE
                  TO      (ANGST)    WRT      (DEG)      WRT      (DEG)
--------------------------------------------------------------------------------
        C    
        N          1         R12  
        H          1         R13        2        A213 
        H          1         R14        2        A214       3        D3214
        O          2         R25        1        A125       3        D3125
        H          5         R56        2        A256       1        D1256
                  *Initial values for internal coordinates* 
                      Name             Value
                        R12             1.2652108500
                        R13             1.0921319000
                        A213          123.4991621400
                        R14             1.0809897100
                        A214          117.1300958800
                        D3214         180.0000000000
                        R25             1.3769166200
                        A125          117.0112644100
                        D3125           0.0000000000
                        R56             0.9733165400
                        A256          109.2805723900
                        D1256           0.0000000000
--------------------------------------------------------------------------------
   Rotational constants (in cm-1): 
          0.3394745244             0.3999959997             2.2436408079
   Rotational constants (in MHz): 
      10177.1916353856         11991.5800740581         67262.6686896502
********************************************************************************
   The full molecular point group is C s .
   The largest Abelian subgroup of the full molecular point group is C s .
   The computational point group is C s .
********************************************************************************
--------------------------------------------------------------------------------
   Analysis of internal coordinates specified by Z-matrix 
--------------------------------------------------------------------------------
   *The nuclear repulsion energy is   71.179096489640330 a.u.
  *WARNING* Parameter D3214[  6] cannot have a nonzero derivative,
    but is being optimized.  Reconstruction of Z-matrix recommended.
  *WARNING* Parameter D3125[  9] cannot have a nonzero derivative,
    but is being optimized.  Reconstruction of Z-matrix recommended.
  *WARNING* Parameter D1256[ 12] cannot have a nonzero derivative,
    but is being optimized.  Reconstruction of Z-matrix recommended.
   *There are   9 degrees of freedom within the tot. symm. molecular subspace.
   *Z-matrix requests optimization of  12 coordinates.
   *The following   9 parameters can have non-zero 
    derivatives within the totally symmetric subspace:
             A214 [ 5]  A213 [ 3]  A256 [11]  R13  [ 2]  R14  [ 4]  R56  [10]
             A125 [ 8]  R25  [ 7]  R12  [ 1]
   *The following  12 parameters are to be optimized:
             R12  [ 1]  R13  [ 2]  A213 [ 3]  R14  [ 4]  A214 [ 5]  D3214[ 6]
             R25  [ 7]  A125 [ 8]  D3125[ 9]  R56  [10]  A256 [11]  D1256[12]

--------------------------------------------------------------------------------


 ----------------------------------------------------------------
         Coordinates used in calculation (QCOMP) 
 ----------------------------------------------------------------
 Z-matrix   Atomic            Coordinates (in bohr)
  Symbol    Number           X              Y              Z
 ----------------------------------------------------------------
     C         6        -2.16574501     0.44466502     0.00000000
     N         7        -0.22438788    -0.95088049     0.00000000
     H         1        -2.08611144     2.50695872     0.00000000
     H         1        -3.98328340    -0.48779602    -0.00000000
     O         8         2.08824337     0.24164587     0.00000000
     H         1         1.83233587     2.06305837     0.00000000
 ----------------------------------------------------------------
 
   Interatomic distance matrix (Angstroms) 
 
                 C             N             H             H             O    
                [ 1]        [ 2]        [ 3]        [ 4]        [ 5]
  C    [ 1]     0.00000
  N    [ 2]     1.26521     0.00000
  H    [ 3]     1.09213     2.07817     0.00000
  H    [ 4]     1.08099     2.00416     1.87599     0.00000
  O    [ 5]     2.25368     1.37692     2.51328     3.23602     0.00000
  H    [ 6]     2.28246     1.93088     2.08682     3.36052     0.97332
 
                 H    
                [ 6]
  H    [ 6]     0.00000
 rotcon2
   Rotational constants (in cm-1): 
          2.2436408079             0.3999959997             0.3394745244
   Rotational constants (in MHz): 
      67262.6686896503         11991.5800740581         10177.1916353856
  There are   3 frozen-core orbitals.
  There are  132 basis functions.
 @CHECKOUT-I, Total execution time (CPU/WALL):        0.11/       0.24 seconds.
--executable xjoda finished with status     0 in        0.24 seconds (walltime).
 --invoking executable--
/home/orgChemistry/bin/cfour_v21/bin/xvmol
 SERIAL VERSION OF MOLECULE STARTED
********************************************************************************
                    INPUT FROM MOL FILE
********************************************************************************
INTGRL        1    0    1    0    0    0    0    0    0                         
         *** CFOUR Program System (Release V0.1) ***                            
title                                                                           
    6    1 Z          0.10E-08              0    0                              
   9999.00      3.00                                                            
          6.00000000    1    4    1    1    1    1                              
C #1  -2.165745011441404   0.444665015369294   0.000000000000000                
   10    4                                                                      
   8236.00000000000       5.310000000000000E-004 -1.130000000000000E-004        
  0.000000000000000E+000  0.000000000000000E+000                                
   1235.00000000000       4.108000000000000E-003 -8.780000000000000E-004        
  0.000000000000000E+000  0.000000000000000E+000                                
   280.800000000000       2.108700000000000E-002 -4.540000000000000E-003        
  0.000000000000000E+000  0.000000000000000E+000                                
   79.2700000000000       8.185300000000000E-002 -1.813300000000000E-002        
  0.000000000000000E+000  0.000000000000000E+000                                
   25.5900000000000       0.234817000000000      -5.576000000000000E-002        
  0.000000000000000E+000  0.000000000000000E+000                                
   8.99700000000000       0.434401000000000      -0.126895000000000             
  0.000000000000000E+000  0.000000000000000E+000                                
   3.31900000000000       0.346129000000000      -0.170352000000000             
  0.000000000000000E+000  0.000000000000000E+000                                
  0.905900000000000       3.937800000000000E-002  0.140382000000000             
   1.00000000000000       0.000000000000000E+000                                
  0.364300000000000      -8.983000000000000E-003  0.598684000000000             
  0.000000000000000E+000  0.000000000000000E+000                                
  0.128500000000000       2.385000000000000E-003  0.395389000000000             
  0.000000000000000E+000   1.00000000000000                                     
    5    3                                                                      
   18.7100000000000       1.403100000000000E-002  0.000000000000000E+000        
  0.000000000000000E+000                                                        
   4.13300000000000       8.686600000000000E-002  0.000000000000000E+000        
  0.000000000000000E+000                                                        
   1.20000000000000       0.290216000000000       0.000000000000000E+000        
  0.000000000000000E+000                                                        
  0.382700000000000       0.501008000000000        1.00000000000000             
  0.000000000000000E+000                                                        
  0.120900000000000       0.343406000000000       0.000000000000000E+000        
   1.00000000000000                                                             
    2    2                                                                      
   1.09700000000000        1.00000000000000       0.000000000000000E+000        
  0.318000000000000       0.000000000000000E+000   1.00000000000000             
    1    1                                                                      
  0.761000000000000        1.00000000000000                                     
          7.00000000    1    4    1    1    1    1                              
N #2  -0.224387883721232  -0.950880489124629   0.000000000000000                
   10    4                                                                      
   11420.0000000000       5.230000000000000E-004 -1.150000000000000E-004        
  0.000000000000000E+000  0.000000000000000E+000                                
   1712.00000000000       4.045000000000000E-003 -8.950000000000000E-004        
  0.000000000000000E+000  0.000000000000000E+000                                
   389.300000000000       2.077500000000000E-002 -4.624000000000000E-003        
  0.000000000000000E+000  0.000000000000000E+000                                
   110.000000000000       8.072699999999999E-002 -1.852800000000000E-002        
  0.000000000000000E+000  0.000000000000000E+000                                
   35.5700000000000       0.233074000000000      -5.733900000000000E-002        
  0.000000000000000E+000  0.000000000000000E+000                                
   12.5400000000000       0.433501000000000      -0.132076000000000             
  0.000000000000000E+000  0.000000000000000E+000                                
   4.64400000000000       0.347472000000000      -0.172510000000000             
  0.000000000000000E+000  0.000000000000000E+000                                
   1.29300000000000       4.126200000000000E-002  0.151814000000000             
   1.00000000000000       0.000000000000000E+000                                
  0.511800000000000      -8.508000000000000E-003  0.599944000000000             
  0.000000000000000E+000  0.000000000000000E+000                                
  0.178700000000000       2.384000000000000E-003  0.387462000000000             
  0.000000000000000E+000   1.00000000000000                                     
    5    3                                                                      
   26.6300000000000       1.467000000000000E-002  0.000000000000000E+000        
  0.000000000000000E+000                                                        
   5.94800000000000       9.176400000000000E-002  0.000000000000000E+000        
  0.000000000000000E+000                                                        
   1.74200000000000       0.298683000000000       0.000000000000000E+000        
  0.000000000000000E+000                                                        
  0.555000000000000       0.498487000000000        1.00000000000000             
  0.000000000000000E+000                                                        
  0.172500000000000       0.337023000000000       0.000000000000000E+000        
   1.00000000000000                                                             
    2    2                                                                      
   1.65400000000000        1.00000000000000       0.000000000000000E+000        
  0.469000000000000       0.000000000000000E+000   1.00000000000000             
    1    1                                                                      
   1.09300000000000        1.00000000000000                                     
          1.00000000    1    3    1    1    1                                   
H #3  -2.086111439000360   2.506958715016279   0.000000000000000                
    5    3                                                                      
   33.8700000000000       6.068000000000000E-003  0.000000000000000E+000        
  0.000000000000000E+000                                                        
   5.09500000000000       4.530800000000000E-002  0.000000000000000E+000        
  0.000000000000000E+000                                                        
   1.15900000000000       0.202822000000000       0.000000000000000E+000        
  0.000000000000000E+000                                                        
  0.325800000000000       0.503903000000000        1.00000000000000             
  0.000000000000000E+000                                                        
  0.102700000000000       0.383421000000000       0.000000000000000E+000        
   1.00000000000000                                                             
    2    2                                                                      
   1.40700000000000        1.00000000000000       0.000000000000000E+000        
  0.388000000000000       0.000000000000000E+000   1.00000000000000             
    1    1                                                                      
   1.05700000000000        1.00000000000000                                     
          1.00000000    1    3    1    1    1                                   
H #4  -3.983283402639747  -0.487796021258349  -0.000000000000000                
    5    3                                                                      
   33.8700000000000       6.068000000000000E-003  0.000000000000000E+000        
  0.000000000000000E+000                                                        
   5.09500000000000       4.530800000000000E-002  0.000000000000000E+000        
  0.000000000000000E+000                                                        
   1.15900000000000       0.202822000000000       0.000000000000000E+000        
  0.000000000000000E+000                                                        
  0.325800000000000       0.503903000000000        1.00000000000000             
  0.000000000000000E+000                                                        
  0.102700000000000       0.383421000000000       0.000000000000000E+000        
   1.00000000000000                                                             
    2    2                                                                      
   1.40700000000000        1.00000000000000       0.000000000000000E+000        
  0.388000000000000       0.000000000000000E+000   1.00000000000000             
    1    1                                                                      
   1.05700000000000        1.00000000000000                                     
          8.00000000    1    4    1    1    1    1                              
O #5   2.088243366878423   0.241645871466229   0.000000000000000                
   10    4                                                                      
   15330.0000000000       5.080000000000000E-004 -1.150000000000000E-004        
  0.000000000000000E+000  0.000000000000000E+000                                
   2299.00000000000       3.929000000000000E-003 -8.950000000000000E-004        
  0.000000000000000E+000  0.000000000000000E+000                                
   522.400000000000       2.024300000000000E-002 -4.636000000000000E-003        
  0.000000000000000E+000  0.000000000000000E+000                                
   147.300000000000       7.918100000000000E-002 -1.872400000000000E-002        
  0.000000000000000E+000  0.000000000000000E+000                                
   47.5500000000000       0.230687000000000      -5.846300000000000E-002        
  0.000000000000000E+000  0.000000000000000E+000                                
   16.7600000000000       0.433118000000000      -0.136463000000000             
  0.000000000000000E+000  0.000000000000000E+000                                
   6.20700000000000       0.350260000000000      -0.175740000000000             
  0.000000000000000E+000  0.000000000000000E+000                                
   1.75200000000000       4.272800000000000E-002  0.160934000000000             
   1.00000000000000       0.000000000000000E+000                                
  0.688200000000000      -8.154000000000000E-003  0.603418000000000             
  0.000000000000000E+000  0.000000000000000E+000                                
  0.238400000000000       2.381000000000000E-003  0.378765000000000             
  0.000000000000000E+000   1.00000000000000                                     
    5    3                                                                      
   34.4600000000000       1.592800000000000E-002  0.000000000000000E+000        
  0.000000000000000E+000                                                        
   7.74900000000000       9.974000000000000E-002  0.000000000000000E+000        
  0.000000000000000E+000                                                        
   2.28000000000000       0.310492000000000       0.000000000000000E+000        
  0.000000000000000E+000                                                        
  0.715600000000000       0.491026000000000        1.00000000000000             
  0.000000000000000E+000                                                        
  0.214000000000000       0.336337000000000       0.000000000000000E+000        
   1.00000000000000                                                             
    2    2                                                                      
   2.31400000000000        1.00000000000000       0.000000000000000E+000        
  0.645000000000000       0.000000000000000E+000   1.00000000000000             
    1    1                                                                      
   1.42800000000000        1.00000000000000                                     
          1.00000000    1    3    1    1    1                                   
H #6   1.832335874667019   2.063058370580205   0.000000000000000                
    5    3                                                                      
   33.8700000000000       6.068000000000000E-003  0.000000000000000E+000        
  0.000000000000000E+000                                                        
   5.09500000000000       4.530800000000000E-002  0.000000000000000E+000        
  0.000000000000000E+000                                                        
   1.15900000000000       0.202822000000000       0.000000000000000E+000        
  0.000000000000000E+000                                                        
  0.325800000000000       0.503903000000000        1.00000000000000             
  0.000000000000000E+000                                                        
  0.102700000000000       0.383421000000000       0.000000000000000E+000        
   1.00000000000000                                                             
    2    2                                                                      
   1.40700000000000        1.00000000000000       0.000000000000000E+000        
  0.388000000000000       0.000000000000000E+000   1.00000000000000             
    1    1                                                                      
   1.05700000000000        1.00000000000000                                     
FINISH                                                                          
 
********************************************************************************
 ONE- AND TWO-ELECTRON INTEGRALS OVER SYMMETRY-ADAPTED AOS ARE CALCULATED.

  SPHERICAL HARMONICS ARE USED.
  
  INTEGRALS LESS THAN  0.10E-13 ARE NEGLECTED.

  NUCLEAR REPULSION ENERGY :   71.1790964896 A.U.
  @MOLECU-I, ONE ELECTRON INTEGRALS (CPU/WALL):        0.04/       0.05 SECONDS.
  @TWOEL-I,    8698562 INTEGRALS OF SYMMETRY TYPE  I I I I
  @TWOEL-I,    7028340 INTEGRALS OF SYMMETRY TYPE  I J I J
  @TWOEL-I,    3644271 INTEGRALS OF SYMMETRY TYPE  I I J J
  @TWOEL-I, TOTAL NUMBER OF 2-E INTEGRALS   19371173.
  @MOLECU-I, TWO ELECTRON INTEGRALS (CPU/WALL):        7.39/       7.85 SECONDS.
 @CHECKOUT-I, Total execution time (CPU/WALL):        7.44/       7.94 seconds.

Running with 24 threads/proc

--executable xvmol finished with status     0 in        7.95 seconds (walltime).
 --invoking executable--
/home/orgChemistry/bin/cfour_v21/bin/xvmol2ja
 @GETMEM-I,  Allocated    4768 MB of main memory.
 @CHECKOUT-I, Total execution time (CPU/WALL):        0.01/       0.02 seconds.
--executable xvmol2ja finished with status     0 in        0.03 seconds (walltime).
 --invoking executable--
/home/orgChemistry/bin/cfour_v21/bin/xvscf
  There are  132 functions in the AO basis.

  There are 2 irreducible representations.

       Irrep        # of functions
         1                 90
         2                 42


  Parameters for SCF calculation: 
        SCF reference function:  RHF  
  Maximum number of iterations:  150
     Full symmetry point group: C s 
     Computational point group: C s 
        Initial density matrix: MOREAD                 
     SCF convergence tolerance: 10**(- 8)
  DIIS convergence acceleration:  ON
          Latest start for DIIS:   8
                     DIIS order:   6

  Memory information:     834884 words required.
  Fock matrices are constructed from AO integral file.
 @GETMEM-I,  Allocated       6 MB of main memory.
  Initialization and symmetry analysis required      0.002 seconds.

  @INITGES-I, Occupancies from core Hamiltonian:

          Alpha population by irrep:  10    2
           Beta population by irrep:  10    2


 total no. of electrons in initial guess :  0.000000000000000E+000
  --------------------------------------------------------------------
  Iteration         Total Energy            Largest Density Difference
  --------------------------------------------------------------------
       0            71.179096489640330              0.0000000000D+00
   current occupation vector 
    10  2
    10  2
       1          -131.966964432593244              0.1381748724D+02
   current occupation vector 
    10  2
    10  2
       2          -127.709543501775016              0.7218428886D+02
   current occupation vector 
    11  1
    11  1
       3          -143.083791237757168              0.7218628906D+02
   current occupation vector 
    10  2
    10  2
       4          -120.820043535732395              0.7547134072D+01
   current occupation vector 
     9  3
     9  3
       5          -140.145991893274612              0.7746374403D+01
   current occupation vector 
    10  2
    10  2
       6          -119.865480839443677              0.8501564771D+01
   current occupation vector 
     9  3
     9  3
       7          -136.310247234627155              0.8501545076D+01
   current occupation vector 
    10  2
    10  2
       8          -122.233166799897845              0.8986228430D+01
   current occupation vector 
    10  2
    10  2
       9          -157.321471360497497              0.8953677540D+01
   current occupation vector 
    10  2
    10  2
      10          -168.707707957717673              0.2038544893D+01
   current occupation vector 
    10  2
    10  2
      11          -168.817600148915261              0.4529411563D+00
   current occupation vector 
    10  2
    10  2
      12          -168.886179187826798              0.2305604189D+00
   current occupation vector 
    10  2
    10  2
      13          -168.901559671019385              0.1129206190D+00
   current occupation vector 
    10  2
    10  2
      14          -168.902264120509756              0.2150959444D-01
   current occupation vector 
    10  2
    10  2
      15          -168.902461897853271              0.1195690845D-01
   current occupation vector 
    10  2
    10  2
      16          -168.902502591937150              0.9207929539D-02
   current occupation vector 
    10  2
    10  2
      17          -168.902505613822171              0.2416779064D-02
   current occupation vector 
    10  2
    10  2
      18          -168.902505885521265              0.7375324809D-03
   current occupation vector 
    10  2
    10  2
      19          -168.902505900178568              0.1754429350D-03
   current occupation vector 
    10  2
    10  2
      20          -168.902505900938024              0.2935904282D-04
   current occupation vector 
    10  2
    10  2
      21          -168.902505901032043              0.1058916669D-04
   current occupation vector 
    10  2
    10  2
      22          -168.902505901048158              0.4432051396D-05
   current occupation vector 
    10  2
    10  2
      23          -168.902505901051171              0.2617045262D-05
   current occupation vector 
    10  2
    10  2
      24          -168.902505901049949              0.5156341092D-06
   current occupation vector 
    10  2
    10  2
      25          -168.902505901049977              0.7414614633D-07
   current occupation vector 
    10  2
    10  2
      26          -168.902505901050517              0.2483218320D-07
   current occupation vector 
    10  2
    10  2

  SCF has converged.

 Density matrix saved to file den.dat
 total electron number:   24.0000000000001     
     E(SCF)=      -168.902505901051597              0.8768682891D-08

  Eigenvector printing suppressed.

 @PUTMOS-I, Writing converged MOs to NEWMOS. 
 @PUTMOS-I, Symmetry   1 Full Blocks 22 Partial Blocksize   2
 @PUTMOS-I, Symmetry   2 Full Blocks 10 Partial Blocksize   2
 @PUTFOCK-I, Writing converged Fock matrix to NEWFOCK. 
 @PUTFOCK-I, Symmetry   1 Full Blocks 22 Partial Blocksize   2
 @PUTFOCK-I, Symmetry   2 Full Blocks 10 Partial Blocksize   2


 
  ORBITAL EIGENVALUES (ALPHA)  (1H = 27.2113834 eV)

       MO #        E(hartree)               E(eV)           FULLSYM    COMPSYM
       ----   --------------------   --------------------   -------   ---------
    1     1         -20.6081033002        -560.7750000476     A'        A'  (1)
    2     2         -15.6430608668        -425.6693267959     A'        A'  (1)
    3     3         -11.2803851182        -306.9548843521     A'        A'  (1)
    4     4          -1.4423030150         -39.2470603194     A'        A'  (1)
    5     5          -1.1600656532         -31.5669912586     A'        A'  (1)
    6     6          -0.8593886256         -23.3851533816     A'        A'  (1)
    7     7          -0.7232482706         -19.6805859837     A'        A'  (1)
    8     8          -0.6832442841         -18.5920221712     A'        A'  (1)
    9    91          -0.6045269348         -16.4500141994     A''       A'' (2)
   10     9          -0.5575490328         -15.1716804961     A'        A'  (1)
   11    10          -0.4669848486         -12.7073037570     A'        A'  (1)
   12    92          -0.4113528204         -11.1934793075     A''       A'' (2)
  +++++++++++++++++++++++++++++++++++++++++++++++++++++++++++++++++++++++++++++
   13    11           0.1365490002           3.7156871963     A'        A'  (1)
   14    93           0.1404970358           3.8231187082     A''       A'' (2)
   15    12           0.1781792407           4.8485036316     A'        A'  (1)
   16    13           0.2004856803           5.4554927124     A'        A'  (1)
   17    14           0.2764322678           7.5221044228     A'        A'  (1)
   18    15           0.3890311226          10.5860750327     A'        A'  (1)
   19    16           0.4466213041          12.1531835414     A'        A'  (1)
   20    94           0.4550574389          12.3827424384     A''       A'' (2)
   21    17           0.4823663398          13.1258554122     A'        A'  (1)
   22    18           0.5680553970          15.4575732007     A'        A'  (1)
   23    19           0.6021200979          16.3845208363     A'        A'  (1)
   24    20           0.6168906655          16.7864484137     A'        A'  (1)
   25    21           0.6495236701          17.6744376141     A'        A'  (1)
   26    95           0.6757260696          18.3874411539     A''       A'' (2)
   27    22           0.6908308524          18.7984631895     A'        A'  (1)
   28    96           0.7251149407          19.7313806605     A''       A'' (2)
   29    23           0.7655205438          20.8308730192     A'        A'  (1)
   30    24           0.8093957208          22.0247772821     A'        A'  (1)
   31    97           0.8269785353          22.5032299872     A''       A'' (2)
   32    25           0.8820645483          24.0021966071     A'        A'  (1)
   33    98           0.8990488441          24.4643627914     A''       A'' (2)
   34    26           0.9671456638          26.3173714614     A'        A'  (1)
   35    99           0.9833504927          26.7583272739     A''       A'' (2)
   36    27           1.0507592589          28.5926130549     A'        A'  (1)
   37    28           1.0719545449          29.1693661087     A'        A'  (1)
   38   100           1.1429613815          31.1015603640     A''       A'' (2)
   39   101           1.2151604598          33.0661971630     A''       A'' (2)
   40    29           1.2222302570          33.2585761265     A'        A'  (1)
   41    30           1.2738856110          34.6641897678     A'        A'  (1)
   42    31           1.3506650464          36.7534644234     A'        A'  (1)
   43    32           1.4249356812          38.7744711425     A'        A'  (1)
   44    33           1.5309694376          41.6597963403     A'        A'  (1)
   45   102           1.5530296027          42.2600839512     A''       A'' (2)
   46    34           1.6099890092          43.8100281979     A'        A'  (1)
   47    35           1.6276610990          44.2909102109     A'        A'  (1)
   48   103           1.6752806886          45.5867051200     A''       A'' (2)
   49    36           1.6754627789          45.5916600482     A'        A'  (1)
   50    37           1.8889048224          51.3997133276     A'        A'  (1)
   51    38           1.9638459077          53.4389639322     A'        A'  (1)
   52    39           2.0575589514          55.9890254952     A'        A'  (1)
   53   104           2.0915491485          56.9139457797     A''       A'' (2)
   54    40           2.2381857464          60.9041304646     A'        A'  (1)
   55   105           2.2477828153          61.1652799861     A''       A'' (2)
   56    41           2.3383005633          63.6283931322     A'        A'  (1)
   57   106           2.3964541797          65.2108334837     A''       A'' (2)
   58    42           2.5212390652          68.6064028473     A'        A'  (1)
   59    43           2.5470392841          69.3084624938     A'        A'  (1)
   60    44           2.6917570505          73.2464331205     A'        A'  (1)
   61    45           2.7997970130          76.1863499636     A'        A'  (1)
   62    46           2.8620665471          77.8807901303     A'        A'  (1)
   63   107           2.9437104818          80.1024345382     A''       A'' (2)
   64    47           2.9882452838          81.3142881120     A'        A'  (1)
   65   108           2.9883398655          81.3168618107     A''       A'' (2)
   66    48           3.1668561636          86.1745372406     A'        A'  (1)
   67   109           3.2142947828          87.4654076950     A''       A'' (2)
   68   110           3.2431730553          88.2512254400     A''       A'' (2)
   69    49           3.2433280109          88.2554419962     A'        A'  (1)
   70   111           3.2764402965          89.1564730963     A''       A'' (2)
   71    50           3.3130051906          90.1514544486     A'        A'  (1)
   72    51           3.4039706591          92.6267506866     A'        A'  (1)
   73   112           3.5045061926          95.3624616358     A''       A'' (2)
   74    52           3.5505647368          96.6157783404     A'        A'  (1)
   75    53           3.6006087137          97.9775441815     A'        A'  (1)
   76   113           3.6205659573          98.5206083890     A''       A'' (2)
   77   114           3.6833271655         100.2284276867     A''       A'' (2)
   78    54           3.6848183979         100.2690061835     A'        A'  (1)
   79    55           3.7085947029         100.9159923366     A'        A'  (1)
   80    56           3.8056065696         103.5558194350     A'        A'  (1)
   81   115           3.8228106494         104.0239662454     A''       A'' (2)
   82   116           3.9835219489         108.3971430340     A''       A'' (2)
   83   117           4.0051031944         108.9843985784     A''       A'' (2)
   84    57           4.0174284264         109.3197851915     A'        A'  (1)
   85    58           4.0310553758         109.6905933380     A'        A'  (1)
   86    59           4.0651962944         110.6196149629     A'        A'  (1)
   87   118           4.1231166563         112.1957081372     A''       A'' (2)
   88    60           4.1329010867         112.4619560234     A'        A'  (1)
   89    61           4.1926800482         114.0886242660     A'        A'  (1)
   90    62           4.2246494922         114.9585570623     A'        A'  (1)
   91   119           4.2272168921         115.0284195649     A''       A'' (2)
   92    63           4.3074842841         117.2126063443     A'        A'  (1)
   93   120           4.3182990619         117.5068914094     A''       A'' (2)
   94    64           4.4585974483         121.3246045922     A'        A'  (1)
   95    65           4.5573997747         124.0131525761     A'        A'  (1)
   96    66           4.6021704739         125.2314252369     A'        A'  (1)
   97   121           4.6074054091         125.3738750657     A''       A'' (2)
   98   122           4.7520652116         129.3102684158     A''       A'' (2)
   99    67           4.9286032218         134.1141118952     A'        A'  (1)
  100   123           5.0245422010         136.7247442415     A''       A'' (2)
  101    68           5.0327309468         136.9475713417     A'        A'  (1)
  102    69           5.0933946349         138.5983142189     A'        A'  (1)
  103    70           5.1610408693         140.4390618386     A'        A'  (1)
  104   124           5.1611725870         140.4426460590     A''       A'' (2)
  105   125           5.2521367999         142.9179081311     A''       A'' (2)
  106    71           5.2740458181         143.5140828265     A'        A'  (1)
  107    72           5.3046554901         144.3470143450     A'        A'  (1)
  108    73           5.3763619114         146.2982452684     A'        A'  (1)
  109   126           5.3807216323         146.4168793062     A''       A'' (2)
  110    74           5.4945738434         149.5149554731     A'        A'  (1)
  111    75           5.5110933900         149.9644751888     A'        A'  (1)
  112    76           5.6035341419         152.4799159315     A'        A'  (1)
  113   127           5.6963534172         155.0056568181     A''       A'' (2)
  114    77           5.8924405114         160.3414579181     A'        A'  (1)
  115   128           5.9457500231         161.7920834789     A''       A'' (2)
  116    78           5.9688331723         162.4202079031     A'        A'  (1)
  117    79           6.0795938342         165.4341587377     A'        A'  (1)
  118    80           6.3082724648         171.6568206302     A'        A'  (1)
  119   129           6.4416501133         175.2862109608     A''       A'' (2)
  120    81           6.6737469495         181.6018869578     A'        A'  (1)
  121   130           6.8830433584         187.2971317843     A''       A'' (2)
  122    82           6.9428130814         188.9235486328     A'        A'  (1)
  123   131           7.0429496850         191.6484041442     A''       A'' (2)
  124    83           7.1739904864         195.2142056344     A'        A'  (1)
  125   132           7.2386138011         196.9726954257     A''       A'' (2)
  126    84           7.2744601478         197.9481241098     A'        A'  (1)
  127    85           7.5746661576         206.1171449405     A'        A'  (1)
  128    86           7.6793837426         208.9666552958     A'        A'  (1)
  129    87           7.8838916290         214.5315978015     A'        A'  (1)
  130    88          10.5552396507         287.2226730154     A'        A'  (1)
  131    89          12.0628356118         328.2464447244     A'        A'  (1)
  132    90          13.9884754397         380.6457683719     A'        A'  (1)


  VSCF finished.

 @CHECKOUT-I, Total execution time (CPU/WALL):        6.01/      10.23 seconds.
--executable xvscf finished with status     0 in       10.23 seconds (walltime).
 --invoking executable--
/home/orgChemistry/bin/cfour_v21/bin/xvtran
 @GETMEM-I,  Allocated    4768 MB of main memory.
  Partial RHF integral transformation
  Frozen-core orbitals requested within analytic derivative calculation
  Transformation of IIII integrals :
  1 pass through the AO integral file was required.
     8698562 AO integrals were read.
     3207686 MO integrals were written to HF2.
  Transformation of IIJJ integrals :
  1 pass through the AO integral file was required.
     3644271 AO integrals were read.
     1040985 MO integrals were written to HF2.
  Transformation of IJIJ integrals :
  1 pass through the AO integral file was required.
     7028340 AO integrals were read.
     2024490 MO integrals were written to HF2.
  Summary of active molecular orbitals: 
------------------------------------------------------------------------
 
  Index      Eigenvalue    Symmetry    Index      Eigenvalue    Symmetry
------------------------------------------------------------------------
     1       -20.6081033        1        67         4.5573998        1
     2       -15.6430609        1        68         4.6021705        1
     3       -11.2803851        1        69         4.9286032        1
     4        -1.4423030        1        70         5.0327309        1
     5        -1.1600657        1        71         5.0933946        1
     6        -0.8593886        1        72         5.1610409        1
     7        -0.7232483        1        73         5.2740458        1
     8        -0.6832443        1        74         5.3046555        1
     9        -0.5575490        1        75         5.3763619        1
    10        -0.4669848        1        76         5.4945738        1
    11        -0.6045269        2        77         5.5110934        1
    12        -0.4113528        2        78         5.6035341        1
    13         0.1365490        1        79         5.8924405        1
    14         0.1781792        1        80         5.9688332        1
    15         0.2004857        1        81         6.0795938        1
    16         0.2764323        1        82         6.3082725        1
    17         0.3890311        1        83         6.6737469        1
    18         0.4466213        1        84         6.9428131        1
    19         0.4823663        1        85         7.1739905        1
    20         0.5680554        1        86         7.2744601        1
    21         0.6021201        1        87         7.5746662        1
    22         0.6168907        1        88         7.6793837        1
    23         0.6495237        1        89         7.8838916        1
    24         0.6908309        1        90        10.5552397        1
    25         0.7655205        1        91        12.0628356        1
    26         0.8093957        1        92        13.9884754        1
    27         0.8820645        1        93         0.1404970        2
    28         0.9671457        1        94         0.4550574        2
    29         1.0507593        1        95         0.6757261        2
    30         1.0719545        1        96         0.7251149        2
    31         1.2222303        1        97         0.8269785        2
    32         1.2738856        1        98         0.8990488        2
    33         1.3506650        1        99         0.9833505        2
    34         1.4249357        1       100         1.1429614        2
    35         1.5309694        1       101         1.2151605        2
    36         1.6099890        1       102         1.5530296        2
    37         1.6276611        1       103         1.6752807        2
    38         1.6754628        1       104         2.0915491        2
    39         1.8889048        1       105         2.2477828        2
    40         1.9638459        1       106         2.3964542        2
    41         2.0575590        1       107         2.9437105        2
    42         2.2381857        1       108         2.9883399        2
    43         2.3383006        1       109         3.2142948        2
    44         2.5212391        1       110         3.2431731        2
    45         2.5470393        1       111         3.2764403        2
    46         2.6917571        1       112         3.5045062        2
    47         2.7997970        1       113         3.6205660        2
    48         2.8620665        1       114         3.6833272        2
    49         2.9882453        1       115         3.8228106        2
    50         3.1668562        1       116         3.9835219        2
    51         3.2433280        1       117         4.0051032        2
    52         3.3130052        1       118         4.1231167        2
    53         3.4039707        1       119         4.2272169        2
    54         3.5505647        1       120         4.3182991        2
    55         3.6006087        1       121         4.6074054        2
    56         3.6848184        1       122         4.7520652        2
    57         3.7085947        1       123         5.0245422        2
    58         3.8056066        1       124         5.1611726        2
    59         4.0174284        1       125         5.2521368        2
    60         4.0310554        1       126         5.3807216        2
    61         4.0651963        1       127         5.6963534        2
    62         4.1329011        1       128         5.9457500        2
    63         4.1926800        1       129         6.4416501        2
    64         4.2246495        1       130         6.8830434        2
    65         4.3074843        1       131         7.0429497        2
    66         4.4585974        1       132         7.2386138        2
------------------------------------------------------------------------
  -20.6081033001646       -15.6430608667956       -11.2803851182418     
  -1.44230301497264       -1.16006565320756      -0.859388625629634     
 -0.723248270564021      -0.683244284124726      -0.557549032811746     
 -0.466984848591145      -0.604526934834959      -0.411352820360164     
  0.136549000163644       0.178179240662863       0.200485680284767     
  0.276432267783845       0.389031122639690       0.446621304134374     
  0.482366339823801       0.568055397018865       0.602120097880530     
  0.616890665460751       0.649523670088040       0.690830852409662     
  0.765520543846991       0.809395720838617       0.882064548290958     
  0.967145663803038        1.05075925889687        1.07195454490127     
   1.22223025700658        1.27388561096941        1.35066504643122     
   1.42493568123645        1.53096943760389        1.60998900915527     
   1.62766109902791        1.67546277886835        1.88890482236891     
   1.96384590767150        2.05755895142048        2.23818574635989     
   2.33830056329327        2.52123906524007        2.54703928407529     
   2.69175705048874        2.79979701302339        2.86206654713119     
   2.98824528384562        3.16685616360677        3.24332801088641     
   3.31300519063564        3.40397065908035        3.55056473682896     
   3.60060871368552        3.68481839785963        3.70859470293011     
   3.80560656960169        4.01742842635023        4.03105537581618     
   4.06519629438872        4.13290108666113        4.19268004823239     
   4.22464949218077        4.30748428410743        4.45859744830869     
   4.55739977468945        4.60217047387927        4.92860322181043     
   5.03273094677195        5.09339463494167        5.16104086933817     
   5.27404581813701        5.30465549006346        5.37636191140510     
   5.49457384342591        5.51109339001053        5.60353414194570     
   5.89244051142560        5.96883317233700        6.07959383416331     
   6.30827246475647        6.67374694951332        6.94281308141128     
   7.17399048643902        7.27446014780009        7.57466615756647     
   7.67938374260683        7.88389162902739        10.5552396507478     
   12.0628356118191        13.9884754397272       0.140497035816949     
  0.455057438879783       0.675726069623577       0.725114940703226     
  0.826978535283184       0.899048844073612       0.983350492715806     
   1.14296138152220        1.21516045975804        1.55302960271953     
   1.67528068859498        2.09154914849764        2.24778281526639     
   2.39645417967434        2.94371048177502        2.98833986553966     
   3.21429478278573        3.24317305528878        3.27644029653869     
   3.50450619264619        3.62056595729670        3.68332716545130     
   3.82281064936139        3.98352194890629        4.00510319436451     
   4.12311665629046        4.22721689206187        4.31829906190668     
   4.60740540907811        4.75206521164208        5.02454220102127     
   5.16117258702136        5.25213679988983        5.38072163233557     
   5.69635341722758        5.94575002309276        6.44165011326841     
   6.88304335840249        7.04294968495330        7.23861380107834     
 @CHECKOUT-I, Total execution time (CPU/WALL):        1.81/       2.30 seconds.
--executable xvtran finished with status     0 in        2.31 seconds (walltime).
 --invoking executable--
/home/orgChemistry/bin/cfour_v21/bin/xintprc
 @GETMEM-I,  Allocated    4768 MB of main memory.
  @GMOIAA-I, Processing MO integrals for spin case AA.
  @GMOIAA-I, Generation of integral list completed.
                      TYPE                NUMBER
                      ----               --------
                      PPPP                     0
                      PPPH               5364800
                      PPHH                544720
                      PHPH                299480
                      PHHH                 62240
                      HHHH                  1921

                     TOTAL               6273161

  @FORMT2-I, Second-order MP correlation energies:
            ------------------------------------------------
            E(SCF)                  =   -168.902505901052 a.u.
            E2(AA)                  =     -0.074912790009 a.u.
            E2(AB)                  =     -0.460409947235 a.u.
            E2(TOT)                 =     -0.610235527252 a.u.
            Total MP2 energy        =   -169.512741428304 a.u.
            ------------------------------------------------
   Largest T2 amplitudes for spin case AB:
       _       _                 _       _                 _       _
   i   j   a   b             i   j   a   b             i   j   a   b
-----------------------------------------------------------------------------
[ 12  12  93  93]-0.07442 [ 12  11  93  93]-0.03201 [ 11  12  93  93]-0.03201
[ 11  11  93  93]-0.03113 [ 12  12  94  94]-0.02661 [ 12  12  94  93]-0.02411
[ 12  12  93  94]-0.02411 [ 10  10  93  93]-0.01697 [ 12  11  93  96]-0.01647
[ 11  12  96  93]-0.01647 [  6   6  93  93]-0.01561 [ 12  11  96  93]-0.01485
[ 11  12  93  96]-0.01485 [ 12   7  93  25]-0.01413 [  7  12  25  93]-0.01413
-----------------------------------------------------------------------------
   Norm of T2AB vector (  1088000 symmetry allowed elements):  0.3604994318.
-----------------------------------------------------------------------------
 @CHECKOUT-I, Total execution time (CPU/WALL):        0.48/       1.14 seconds.
--executable xintprc finished with status     0 in        1.15 seconds (walltime).
  calling xecc 
 --invoking executable--
/home/orgChemistry/bin/cfour_v21/bin/xecc
 @GETMEM-I,  Allocated    4768 MB of main memory.
 CCSD(T) energy will be calculated.
 AO based algorithm is used. 
   Frozen core orbitals in analytic derivative calculation
 Largest T2 amplitudes for spin case AB:
        _       _                 _       _                 _       _
    i   j   a   b             i   j   a   b             i   j   a   b
 -----------------------------------------------------------------------------
 [ 12  12  93  93]-0.07442 [ 12  11  93  93]-0.03201 [ 11  12  93  93]-0.03201
 [ 11  11  93  93]-0.03113 [ 12  12  94  94]-0.02661 [ 12  12  94  93]-0.02411
 [ 12  12  93  94]-0.02411 [ 10  10  93  93]-0.01697 [ 12  11  93  96]-0.01647
 [ 11  12  96  93]-0.01647 [  6   6  93  93]-0.01561 [ 12  11  96  93]-0.01485
 [ 11  12  93  96]-0.01485 [ 12   7  93  25]-0.01413 [  7  12  25  93]-0.01413
 -----------------------------------------------------------------------------
 Norm of T2AB vector (  1088000 symmetry allowed elements):  0.3604994318.
 -----------------------------------------------------------------------------
 The total correlation energy is -0.610235527252 a.u.
 Resorts of amplitudes and integrals (CPU/WALL):       0.03/       0.06 seconds.
 Starting iterative solution of the CC equations.
 The DIIS procedure is used to accelerate convergence.
 5 expansion vectors are used in the DIIS extrapolation.
 Convergence criterium is 10**(-10).
 Maximum number of iterations is 100.
 >>>>>>>>>>>>>>>>>>>>>>>>>>>>>>>>>>>>>>>>>>>>>>>>>>>>>>>>>>>>>>>>>>>>>>>>>>>>>>>
 Iteration Nr.   1 started:
 Generation of Intermediates required (CPU/WALL):      0.38/       0.62 seconds.
 Transformation of t(ab,ij) amplitudes required    0.0 seconds.
 Contraction of t(mu nu,ij) with AO integrals required    2.6 seconds.
 Backtransformation of t(mu nu,ij) increments required    0.0 seconds.
 Construction of Hbar required (CPU/WALL):             2.92/       3.27 seconds.
   Frozen core orbitals in analytic derivative calculation
 Amplitude changes are:
 -------------------------------------------------------------------
              Spin      RMS          Max.      Max. change for
  Amplitude   Case     Change       Change       i    j    a    b
 -------------------------------------------------------------------
     T1        AA    0.0000544393-0.0175065984   11        93
     T2        AB    0.0000000463-0.0053593149   12   11   93   93
 -------------------------------------------------------------------
 The total correlation energy is -0.604691315042 a.u.
 Convergence information after     1 iterations: 
 Largest element of residual vector : -0.17506598E-01.
 Largest element of DIIS residual   : -0.17506598E-01.
 Iteration Nr.   1 required (CPU/WALL):                3.40/       4.09 seconds.
 >>>>>>>>>>>>>>>>>>>>>>>>>>>>>>>>>>>>>>>>>>>>>>>>>>>>>>>>>>>>>>>>>>>>>>>>>>>>>>>
 Iteration Nr.   2 started:
 Generation of Intermediates required (CPU/WALL):      0.37/       0.60 seconds.
 Transformation of t(ab,ij) amplitudes required    0.0 seconds.
 Contraction of t(mu nu,ij) with AO integrals required    2.7 seconds.
 Backtransformation of t(mu nu,ij) increments required    0.0 seconds.
 Construction of Hbar required (CPU/WALL):             2.96/       3.29 seconds.
   Frozen core orbitals in analytic derivative calculation
 Amplitude changes are:
 -------------------------------------------------------------------
              Spin      RMS          Max.      Max. change for
  Amplitude   Case     Change       Change       i    j    a    b
 -------------------------------------------------------------------
     T1        AA    0.0000073360 0.0023556513   11        93
     T2        AB    0.0000000246-0.0118850370   12   12   93   93
 -------------------------------------------------------------------
 The total correlation energy is -0.622597091710 a.u.
 Convergence information after     2 iterations: 
 Largest element of residual vector : -0.11885037E-01.
 Largest element of DIIS residual   : -0.11061266E-01.
 Iteration Nr.   2 required (CPU/WALL):                3.46/       4.14 seconds.
 >>>>>>>>>>>>>>>>>>>>>>>>>>>>>>>>>>>>>>>>>>>>>>>>>>>>>>>>>>>>>>>>>>>>>>>>>>>>>>>
 Iteration Nr.   3 started:
 Generation of Intermediates required (CPU/WALL):      0.37/       0.60 seconds.
 Transformation of t(ab,ij) amplitudes required    0.0 seconds.
 Contraction of t(mu nu,ij) with AO integrals required    2.7 seconds.
 Backtransformation of t(mu nu,ij) increments required    0.0 seconds.
 Construction of Hbar required (CPU/WALL):             2.94/       3.28 seconds.
   Frozen core orbitals in analytic derivative calculation
 Amplitude changes are:
 -------------------------------------------------------------------
              Spin      RMS          Max.      Max. change for
  Amplitude   Case     Change       Change       i    j    a    b
 -------------------------------------------------------------------
     T1        AA    0.0000104594-0.0048943079   11        93
     T2        AB    0.0000000084-0.0035306466   12   12   93   93
 -------------------------------------------------------------------
 The total correlation energy is -0.622407482336 a.u.
 Convergence information after     3 iterations: 
 Largest element of residual vector : -0.48943079E-02.
 Largest element of DIIS residual   :  0.36960560E-02.
 Iteration Nr.   3 required (CPU/WALL):                3.47/       4.18 seconds.
 >>>>>>>>>>>>>>>>>>>>>>>>>>>>>>>>>>>>>>>>>>>>>>>>>>>>>>>>>>>>>>>>>>>>>>>>>>>>>>>
 Iteration Nr.   4 started:
 Generation of Intermediates required (CPU/WALL):      0.37/       0.60 seconds.
 Transformation of t(ab,ij) amplitudes required    0.0 seconds.
 Contraction of t(mu nu,ij) with AO integrals required    2.6 seconds.
 Backtransformation of t(mu nu,ij) increments required    0.0 seconds.
 Construction of Hbar required (CPU/WALL):             2.92/       3.25 seconds.
   Frozen core orbitals in analytic derivative calculation
 Amplitude changes are:
 -------------------------------------------------------------------
              Spin      RMS          Max.      Max. change for
  Amplitude   Case     Change       Change       i    j    a    b
 -------------------------------------------------------------------
     T1        AA    0.0000018649 0.0006716185   10        13
     T2        AB    0.0000000030-0.0016171814   12   12   93   93
 -------------------------------------------------------------------
 The total correlation energy is -0.624367918325 a.u.
 Convergence information after     4 iterations: 
 Largest element of residual vector : -0.16171814E-02.
 Largest element of DIIS residual   : -0.86650547E-03.
 Iteration Nr.   4 required (CPU/WALL):                3.49/       4.20 seconds.
 >>>>>>>>>>>>>>>>>>>>>>>>>>>>>>>>>>>>>>>>>>>>>>>>>>>>>>>>>>>>>>>>>>>>>>>>>>>>>>>
 Iteration Nr.   5 started:
 Generation of Intermediates required (CPU/WALL):      0.37/       0.60 seconds.
 Transformation of t(ab,ij) amplitudes required    0.0 seconds.
 Contraction of t(mu nu,ij) with AO integrals required    2.6 seconds.
 Backtransformation of t(mu nu,ij) increments required    0.0 seconds.
 Construction of Hbar required (CPU/WALL):             2.93/       3.26 seconds.
   Frozen core orbitals in analytic derivative calculation
 Amplitude changes are:
 -------------------------------------------------------------------
              Spin      RMS          Max.      Max. change for
  Amplitude   Case     Change       Change       i    j    a    b
 -------------------------------------------------------------------
     T1        AA    0.0000018008 0.0010615876   12        93
     T2        AB    0.0000000010-0.0004530613   12   12   93   93
 -------------------------------------------------------------------
 The total correlation energy is -0.624741632507 a.u.
 Convergence information after     5 iterations: 
 Largest element of residual vector :  0.10615876E-02.
 Largest element of DIIS residual   :  0.49205148E-03.
 Iteration Nr.   5 required (CPU/WALL):                3.54/       4.27 seconds.
 Largest T1 amplitudes for spin case AA:
    i       a                 i       a                 i       a    
 -----------------------------------------------------------------------------
 [ 11      93    ]-0.02324 [ 12      93    ] 0.02270 [ 12      94    ] 0.02256
 [ 10      13    ] 0.01765 [ 12      98    ]-0.01097 [ 12      96    ]-0.00888
 [ 12     101    ] 0.00877 [ 11      95    ]-0.00803 [  8      15    ]-0.00752
 [ 11      98    ]-0.00694 [ 10      23    ]-0.00658 [  9      13    ] 0.00654
 [ 10      24    ]-0.00640 [  8      17    ]-0.00620 [  8      18    ] 0.00617
 -----------------------------------------------------------------------------
 Norm of T1AA vector (      880 symmetry allowed elements):  0.0599665918.
 -----------------------------------------------------------------------------
 Largest T2 amplitudes for spin case AB:
        _       _                 _       _                 _       _
    i   j   a   b             i   j   a   b             i   j   a   b
 -----------------------------------------------------------------------------
 [ 12  12  93  93]-0.09841 [ 12  11  93  93]-0.04238 [ 11  12  93  93]-0.04238
 [ 12  12  94  93]-0.03383 [ 12  12  93  94]-0.03383 [ 11  11  93  93]-0.03272
 [ 12  12  94  94]-0.02687 [ 10  10  93  93]-0.02355 [ 12  11  93  96]-0.01918
 [ 11  12  96  93]-0.01918 [ 12  11  96  93]-0.01869 [ 11  12  93  96]-0.01869
 [ 12  12  96  93]-0.01758 [ 12  12  93  96]-0.01758 [  6   6  93  93]-0.01678
 -----------------------------------------------------------------------------
 Norm of T2AB vector (  1088000 symmetry allowed elements):  0.3992215893.
 -----------------------------------------------------------------------------
 >>>>>>>>>>>>>>>>>>>>>>>>>>>>>>>>>>>>>>>>>>>>>>>>>>>>>>>>>>>>>>>>>>>>>>>>>>>>>>>
 Iteration Nr.   6 started:
 Generation of Intermediates required (CPU/WALL):      0.37/       0.58 seconds.
 Transformation of t(ab,ij) amplitudes required    0.0 seconds.
 Contraction of t(mu nu,ij) with AO integrals required    2.7 seconds.
 Backtransformation of t(mu nu,ij) increments required    0.0 seconds.
 Construction of Hbar required (CPU/WALL):             2.94/       3.27 seconds.
   Frozen core orbitals in analytic derivative calculation
 Amplitude changes are:
 -------------------------------------------------------------------
              Spin      RMS          Max.      Max. change for
  Amplitude   Case     Change       Change       i    j    a    b
 -------------------------------------------------------------------
     T1        AA    0.0000006121 0.0003178882   12        93
     T2        AB    0.0000000003 0.0000533401   11   12   93   93
 -------------------------------------------------------------------
 The total correlation energy is -0.624770870502 a.u.
 Convergence information after     6 iterations: 
 Largest element of residual vector :  0.31788819E-03.
 Largest element of DIIS residual   :  0.12748643E-03.
 Iteration Nr.   6 required (CPU/WALL):                3.55/       4.27 seconds.
 >>>>>>>>>>>>>>>>>>>>>>>>>>>>>>>>>>>>>>>>>>>>>>>>>>>>>>>>>>>>>>>>>>>>>>>>>>>>>>>
 Iteration Nr.   7 started:
 Generation of Intermediates required (CPU/WALL):      0.37/       0.60 seconds.
 Transformation of t(ab,ij) amplitudes required    0.0 seconds.
 Contraction of t(mu nu,ij) with AO integrals required    2.7 seconds.
 Backtransformation of t(mu nu,ij) increments required    0.0 seconds.
 Construction of Hbar required (CPU/WALL):             2.95/       3.28 seconds.
   Frozen core orbitals in analytic derivative calculation
 Amplitude changes are:
 -------------------------------------------------------------------
              Spin      RMS          Max.      Max. change for
  Amplitude   Case     Change       Change       i    j    a    b
 -------------------------------------------------------------------
     T1        AA    0.0000003003 0.0002019256   12        93
     T2        AB    0.0000000002 0.0000606286   12   12   93   93
 -------------------------------------------------------------------
 The total correlation energy is -0.624775104964 a.u.
 Convergence information after     7 iterations: 
 Largest element of residual vector :  0.20192564E-03.
 Largest element of DIIS residual   :  0.10486755E-03.
[...]
                          CHIzz =      -104.58031
                          CHIxy =        17.97463
                          CHIxz =        -0.00000
                          CHIyz =         0.00000
                             Z-matrix center   4:
  Atomic charge is                      1
       XX =    0.2180586995  YY =   -0.0549511630  ZZ =   -0.1631075365
       XY =    0.1769707934  XZ =    0.0000000000  YZ =    0.0000000000
                          In kHz, Mass number   2
                          CHIxx =       146.53526
                          CHIyy =       -36.92714
                          CHIzz =      -109.60813
                          CHIxy =       118.92422
                          CHIxz =         0.00000
                          CHIyz =         0.00000
                             Z-matrix center   5:
  Atomic charge is                      8
       XX =    0.8079815012  YY =    1.1756357964  ZZ =   -1.9836172975
       XY =    1.1026953162  XZ =    0.0000000000  YZ =    0.0000000000
                             Z-matrix center   6:
  Atomic charge is                      1
       XX =   -0.1659379184  YY =    0.4278234501  ZZ =   -0.2618855317
       XY =   -0.1100734008  XZ =   -0.0000000000  YZ =    0.0000000000
                          In kHz, Mass number   2
                          CHIxx =      -111.51014
                          CHIyy =       287.49700
                          CHIzz =      -175.98686
                          CHIxy =       -73.96923
                          CHIxz =        -0.00000
                          CHIyz =         0.00000
   Electrostatic potential at atomic centers 
          Z-matrix                             Potential
           center                               [<1/r>]
              1                            -14.7229683962
              2                            -18.3197403438
              3                             -1.0614385481
              4                             -1.0714520536
              5                            -22.2992098626
              6                             -0.9787810144
 
  Mulliken population analysis of SCF density.
   Total density is analyzed.
 
  Population analysis by orbitals.
 -------------------------------------------------------
     Z-matrix
      Center          Function          Population
 -------------------------------------------------------
         1                S              1.99851797
         1                S              1.48643792
         1                S             -0.01809325
         1                S             -0.18164559
         1                P              1.19139059
         1                P             -0.11740677
         1                P             -0.15981767
         1                P              1.21036906
         1                P             -0.11433144
         1                P             -0.19762965
         1                P              0.92754154
         1                P             -0.00376837
         1                P              0.01005731
         1                D              0.00558988
         1                D              0.01238431
         1                D              0.00930871
         1                D              0.01468977
         1                D              0.00298519
         1                D              0.01734759
         1                D              0.00459154
         1                D              0.01426983
         1                D              0.00162036
         1                D              0.00822770
         1                D              0.00208627
         1                D              0.00369943
         1                F              0.00080454
         1                F              0.00238961
         1                F              0.00087140
         1                F              0.00165889
         1                F              0.00149520
         1                F              0.00063595
         1                F              0.00071364
         1                F              0.00017342
         1                F              0.00050549
         1                F              0.00060928
         2                S              1.99829300
         2                S              1.74102685
         2                S             -0.00508508
         2                S             -0.15680686
         2                P              1.00947817
         2                P             -0.02387500
         2                P             -0.15351419
         2                P              1.50250178
         2                P             -0.02483744
         2                P             -0.03006219
         2                P              1.04824526
         2                P              0.00508444
         2                P             -0.01039307
         2                D              0.00157065
         2                D              0.01026177
         2                D              0.00651381
         2                D              0.02565562
         2                D              0.00257466
         2                D              0.02541462
         2                D              0.00081752
         2                D              0.00628315
         2                D              0.00132084
         2                D              0.01172978
         2                D              0.00118757
         2                D              0.00444211
         2                F              0.00051597
         2                F              0.00164417
         2                F              0.00077698
         2                F              0.00103311
         2                F              0.00142179
         2                F              0.00065314
         2                F              0.00025288
         2                F              0.00003322
         2                F              0.00030255
         2                F              0.00037223
         3                S              1.39056472
         3                S             -0.20114942
         3                S             -0.29095635
         3                P              0.00072117
         3                P              0.00479666
         3                P              0.00726605
         3                P              0.00493678
         3                P              0.00093371
         3                P              0.00747168
         3                D              0.00012406
         3                D              0.00079476
         3                D              0.00000405
         3                D              0.00059438
         3                D              0.00052571
         3                D              0.00016636
         4                S              1.38373764
         4                S             -0.24102045
         4                S             -0.31906292
         4                P              0.00623496
         4                P             -0.00023398
         4                P              0.00220641
         4                P              0.00543216
         4                P              0.00104788
         4                P              0.00873816
         4                D              0.00053194
         4                D              0.00076524
         4                D              0.00058894
         4                D              0.00025034
         4                D              0.00007962
         4                D              0.00012002
         5                S              1.99827807
         5                S              1.83231391
         5                S             -0.00548374
         5                S             -0.04683325
         5                P              1.37278283
         5                P              0.01089175
         5                P             -0.01020701
         5                P              1.36786954
         5                P             -0.01456486
         5                P             -0.13267940
         5                P              1.83164247
         5                P              0.00088171
         5                P              0.05226037
         5                D              0.00098971
         5                D              0.00859676
         5                D              0.00101895
         5                D              0.00861990
         5                D              0.00034478
         5                D              0.00479756
         5                D              0.00100745
         5                D              0.00700999
         5                D              0.00008388
         5                D              0.00093809
         5                D              0.00041443
         5                D              0.00324252
         5                F              0.00015857
         5                F              0.00051608
         5                F              0.00015664
         5                F              0.00022788
         5                F              0.00008216
         5                F              0.00031309
         5                F              0.00018597
         5                F              0.00005304
         5                F              0.00029235
         5                F              0.00008714
         6                S              1.15958316
         6                S             -0.20891597
         6                S             -0.25139079
         6                P              0.00291019
         6                P              0.01329900
         6                P              0.01277301
         6                P              0.01614508
         6                P              0.00382297
         6                P              0.02861796
         6                D              0.00044420
         6                D              0.00204882
         6                D              0.00015820
         6                D              0.00151909
         6                D              0.00294191
         6                D              0.00043009
 -------------------------------------------------------
  Population analysis by atoms (atomic charges).
 -------------------------------------------------------
     Z-matrix
      Center          Function          Population
 -------------------------------------------------------
         1                               6.13827968
         2                               7.00483380
         3                               0.92679432
         4                               0.84941595
         5                               8.29628933
         6                               0.78438693
 -------------------------------------------------------
 
  Mulliken population analysis of CCSD(T) density.
   Total density is analyzed.
 
  Population analysis by orbitals.
 -------------------------------------------------------
     Z-matrix
      Center          Function          Population
 -------------------------------------------------------
         1                S              1.99769784
         1                S              1.47957962
         1                S             -0.00966432
         1                S             -0.17465818
         1                P              1.18650672
         1                P             -0.12484285
         1                P             -0.15444430
         1                P              1.21052786
         1                P             -0.11948875
         1                P             -0.18687795
         1                P              0.98754100
         1                P             -0.01390782
         1                P             -0.01415326
         1                D              0.00657902
         1                D              0.01225313
         1                D              0.01053898
         1                D              0.01499539
         1                D              0.00451092
         1                D              0.01655306
         1                D              0.00578818
         1                D              0.01395854
         1                D              0.00334269
         1                D              0.00871943
         1                D              0.00326461
         1                D              0.00669133
         1                F              0.00106500
         1                F              0.00275818
         1                F              0.00115195
         1                F              0.00230956
         1                F              0.00169255
         1                F              0.00098404
         1                F              0.00090947
         1                F              0.00058679
         1                F              0.00085968
         1                F              0.00066874
         2                S              1.99747781
         2                S              1.72723048
         2                S              0.00309325
         2                S             -0.16145883
         2                P              1.02861157
         2                P             -0.03756120
         2                P             -0.14430168
         2                P              1.46442577
         2                P             -0.03857128
         2                P             -0.01667174
         2                P              1.10169552
         2                P             -0.00905031
         2                P             -0.04227183
         2                D              0.00279208
         2                D              0.01254941
         2                D              0.00791330
         2                D              0.02564205
         2                D              0.00408275
         2                D              0.02626221
         2                D              0.00220711
         2                D              0.00934610
         2                D              0.00319989
         2                D              0.01487603
         2                D              0.00231289
         2                D              0.00675530
         2                F              0.00071919
         2                F              0.00193082
         2                F              0.00109419
         2                F              0.00147168
         2                F              0.00180827
         2                F              0.00093666
         2                F              0.00044751
         2                F              0.00040880
         2                F              0.00062934
         2                F              0.00050307
         3                S              1.38330648
         3                S             -0.21122281
         3                S             -0.27662404
         3                P              0.00139887
         3                P              0.00744116
         3                P              0.00743252
         3                P              0.00171602
         3                P              0.00167073
         3                P              0.00969529
         3                D              0.00018109
         3                D              0.00098672
         3                D              0.00008855
         3                D              0.00066270
         3                D              0.00077087
         3                D              0.00023470
         4                S              1.37687420
         4                S             -0.25081058
         4                S             -0.31089732
         4                P              0.00645120
         4                P             -0.00196750
         4                P              0.00273348
         4                P              0.00615662
         4                P              0.00178824
         4                P              0.01075725
         4                D              0.00065027
         4                D              0.00088198
         4                D              0.00077923
         4                D              0.00034580
         4                D              0.00020766
         4                D              0.00018983
         5                S              1.99766041
         5                S              1.81961862
         5                S              0.00360442
         5                S             -0.05450855
         5                P              1.37941851
         5                P             -0.00967003
         5                P             -0.01063907
         5                P              1.38256900
         5                P             -0.03085236
         5                P             -0.14015200
         5                P              1.79131540
         5                P             -0.02179287
         5                P              0.06583332
         5                D              0.00204837
         5                D              0.01036533
         5                D              0.00258693
         5                D              0.01157962
         5                D              0.00215810
         5                D              0.00955364
         5                D              0.00209032
         5                D              0.00923295
         5                D              0.00192039
         5                D              0.00533594
         5                D              0.00164291
         5                D              0.00578621
         5                F              0.00032918
         5                F              0.00082229
         5                F              0.00051954
         5                F              0.00057775
         5                F              0.00052056
         5                F              0.00063911
         5                F              0.00035173
         5                F              0.00038333
         5                F              0.00061969
         5                F              0.00026075
         6                S              1.17005887
         6                S             -0.21414193
         6                S             -0.24579923
         6                P              0.00339790
         6                P              0.01661032
         6                P              0.01207407
         6                P              0.01487609
         6                P              0.00420256
         6                P              0.03324665
         6                D              0.00046050
         6                D              0.00200401
         6                D              0.00026392
         6                D              0.00134176
         6                D              0.00280447
         6                D              0.00045842
 -------------------------------------------------------
  Population analysis by atoms (atomic charges).
 -------------------------------------------------------
     Z-matrix
      Center          Function          Population
 -------------------------------------------------------
         1                               6.18399683
         2                               7.00053617
         3                               0.92773885
         4                               0.84414036
         5                               8.24172941
         6                               0.80185838
 -------------------------------------------------------
 @CHECKOUT-I, Total execution time (CPU/WALL):        0.08/       0.24 seconds.
--executable xprops finished with status     0 in        0.25 seconds (walltime).
  The final electronic energy is      -169.555224757957149 a.u. 
  This computation required                         5882.15 seconds (walltime).

real	98m2.154s
user	62m52.702s
sys	13m58.088s
