 --invoking executable--
/home/orgChemistry/bin/cfour_v21/bin/xjoda


   *************************************************************************
         <<<     CCCCCC     CCCCCC   |||     CCCCCC     CCCCCC   >>>
       <<<      CCC        CCC       |||    CCC        CCC         >>>
      <<<      CCC        CCC        |||   CCC        CCC            >>>
    <<<        CCC        CCC        |||   CCC        CCC              >>>
      <<<      CCC        CCC        |||   CCC        CCC            >>>
       <<<      CCC        CCC       |||    CCC        CCC         >>>
         <<<     CCCCCC     CCCCCC   |||     CCCCCC     CCCCCC   >>>
   *************************************************************************

     ****************************************************************
     * CFOUR Coupled-Cluster techniques for Computational Chemistry *
     ****************************************************************
 

   Department of Chemistry                Institut fuer Physikalische Chemie
   University of Florida                  Universitaet Mainz
   Gainesville, FL 32611, USA             D-55099 Mainz, Germany

   Department of Chemistry                Fakultaet fuer Chemie und Biowiss.
   Johns Hopkins University               Karlsruher Institut fuer Technologie
   Baltimore, MD 21218, USA               D-76131 Karlsruhe, Germany

   Department of Chemistry                Department of Physical Chemistry
   Southern Methodist University          Eotvos Lorand University
   Dallas, TX 75275, USA                  H-1053 Budapest, Hungary

 
                       Version 2.1
 
                     node2-055                                         
                     Fri Jan 29 00:56:59 CET 2021                      
                     integer*8 version is running
 
********************************************************************************
*                          Input from ZMAT file                                *
********************************************************************************
title                                                                           
C                                                                               
N 1 R12                                                                         
O 1 R13 2 A213                                                                  
H 1 R14 3 A314 2 D2314                                                          
                                                                                
R12  =        1.264559804452835                                                 
R13  =        1.311222458174235                                                 
A213 =       89.924709729501203                                                 
R14  =        1.081831522693410                                                 
A314 =      131.005420867533616                                                 
D2314=      180.000000000000000                                                 
                                                                                
*CFOUR(CALC=CCSD(T),BASIS=cc-pVTZ,FROZEN_CORE=1                                 
       VIB=EXACT                                                                
       MEMORY_SIZE=5000,MEM_UNIT=MB,ABCDTYPE=AOBASIS,CC_PROG=ECC                
       MULTIPLICITY=1,CHARGE=0                                                  
       SCF_CONV=8,CC_CONV=10)                                                   
                                                                                
********************************************************************************
    -------------------------------------------------------------------
                    CFOUR Control Parameters 
    -------------------------------------------------------------------
        External           Internal           Value            Units
          Name               Name
    -------------------------------------------------------------------
       ABCDTYPE             IABCDT         AOBASIS     [  2]    ***   
       ANHARMONIC           IANHAR         OFF         [  0]    ***   
       ANH_ALGORIT          IANALG         STANDARD    [  0]    ***   
       ANH_DERIVAT          IANDER         SECOND      [  1]    ***   
       ANH_MODE             ANHMOD         VIBRATION   [  0]    ***   
       ANH_STEPSIZ          ICUBST             50000          x 10-6  
       ANH_SYMMETR          IANHSM         ABELIAN     [  0]    ***   
       AO_LADDERS           IAOLAD         SINGLEPASS  [  1]    ***   
       AV_SCF               IAVSCF         OFF         [  0]    ***   
       BASIS                IBASIS         PVTZ        [ 14]    ***   
       BOTHVECTORS          BOTHVC         OFF         [  0]    ***   
       BOX_POTENT           IPIAB          OFF         [  0]    ***   
       BREIT                IBREIT         OFF         [  0]    ***   
       BRUCK_CONV           IBRTOL          10D-  4             ***   
       BRUECKNER            IBRKNR         OFF         [  0]    ***   
       BUFFERSIZE           IBUFFS              4096            ***   
       CACHE_RECS           ICHREC             10               ***   
       CALCLEVEL            ICLLVL         CCSD(T)     [ 22]    ***   
       CCORBOPT             ICCORB         OFF         [  0]  x 0.01  
       CC_CONV              ICCCNV          10D- 10             ***   
       CC_EXPORDER          ICCEOR              5               ***   
       CC_EXTRAPOL          ICCEXT         DIIS        [  1]    ***   
       CC_GUESS             ICCGES         MP2         [  0]    ***   
       CC_MAXCYC            ICCCYC            100              cycles 
       CC_PROGRAM           ICCPRO         ECC         [  1]    ***   
       CHARGE               ICHRGE              0               ***   
       CHOLESKY             ICHOLE         OFF         [  0]    ***   
       CIS_CONV             ICISTL              5               ***   
       COMM_SIZE            IPSIZE            ***               ***   
       CONSTANT             ICONST         OLD         [  1]    ***   
       CONTINUUM            ICONTU         NONE        [  0]    ***   
       CONTRACTION          ICNTYP         GENERAL     [  1]    ***   
       COORDINATES          ICOORD         INTERNAL    [  0]    ***   
       CPHF_CONVER          ICPHFT          10D- 16             ***   
       CPHF_MAXCYC          ICPHFC             64              cycles 
       CUBIC                ICUBIC         OFF         [  0]    ***   
       CURVILINEAR          ICURVY         OFF         [  0]    ***   
       DBOC                 IDBOC          OFF         [  0]    ***   
       DCT                  IDCT           OFF         [  0]    ***   
       DERIV_LEV            IDRLVL         SECOND      [  2]    ***   
       DEVMEM_SIZE          IDVMEM         *********           MByte  
       DIAG_MRCC            IEOMST          10D-  0             ***   
       DIFF_TYPE            IDIFTY         RELAXED     [  0]    ***   
       DIRECT               IDIRCT         OFF         [  0]    ***   
       DROPMO               IDRPMO      NONE         
       ECP                  IECP           OFF         [  0]    ***   
       EIGENVECTOR          IVEC                1               ***   
       EL_ANHARM            IELANH         OFF         [  0]    ***   
       EOMFOLLOW            IEOMSR         ENERGY      [  0]    ***   
       EOMIP                IEOMIP         OFF         [  0]    ***   
       EOMLEVEL             HBARFM         SAME        [  0]    ***   
       EOM_MRCC             IMRCCE         NEW         [  1]    ***   
       EOM_NONIT            EOMNON         OFF         [  0]    ***   
       EOM_NSING            IEOMSI          10D-  0             ***   
       EOM_NSTATES          IMRCCD         DAVIDSON    [  0]    ***   
       EOM_NTRIP            IEOMTR          10D-  0             ***   
       EOM_ORDER            IEXORD         ENERGY      [  0]    ***   
       EOM_PROPSTA          IEOMST              0               ***   
       ESTATE_CONV          IEXTOL          10D-  5             ***   
       ESTATE_DIAG          IEXDIG         ITERATIVE   [  0]    ***   
       ESTATE_LOCK          IESLOC         ON          [  1]    ***   
       ESTATE_MAXC          IEXMXC             40               ***   
       ESTATE_PROP          IEXPRP         OFF         [  0]    ***   
       EVAL_HESS            IRECAL              0            # of cyc.
       EXCITATION           IEXCIT              0               ***   
       EXCITE               IEXCIT         NONE        [  0]    ***   
       EXTERN_POT           IEXPOT         OFF         [  0]    ***   
       FCGRADNEW            IFCGNW         OFF         [  0]    ***   
       FC_FIELD             IFINFC              0             x 10-6  
       FD_CALTYPE           IFDCAL         GRADONLY    [  0]    ***   
       FD_PROJECT           IFDPRJ         OFF         [  1]    ***   
       FD_STEPSIZE          IDISFD              0            10-4 bohr
       FD_USEGROUP          IFDGRP         FULL        [  0]    ***   
       FILE_RECSIZ          IFLREC              4096           words  
       FINITE_PERT          IFIPER              0             x 10-6  
       FIXGEOM              IFIXGM         OFF         [  0]    ***   
       FOCK                 IFOCK          AO          [  1]    ***   
       FREQ_ALGORI          IVIALG         STANDARD    [  0]    ***   
       FROZEN_CORE          IFROCO         ON          [  1]    ***   
       GAMMA_ABCD           IGABCD         DIRECT      [  1]    ***   
       GAMMA_ABCI           IGABCI         STORE       [  0]    ***   
       GENBAS_1             IGNBS1              0               ***   
       GENBAS_2             IGNBS2              0               ***   
       GENBAS_3             IGNBS3              0               ***   
       GENBAS_4             IGNBS4              0               ***   
       GEO_CONV             ICONTL              5              H/bohr 
       GEO_MAXCYC           IOPTCY             50               ***   
       GEO_MAXSTEP          IMXSTP            300            millibohr
       GEO_METHOD           INR            SINGLE_POINT[  5]    ***   
       GIAO                 IGIAO          OFF         [  1]    ***   
       GIMIC                IGIMIC         OFF         [  0]    ***   
       GRID                 IGRID          OFF         [  0]    ***   
       GRID_ALGO            IGALGO         SERIAL      [  0]    ***   
       GUESS                IGUESS         MOREAD      [  0]    ***   
       HBAR                 IHBAR          OFF         [  0]    ***   
       HESS_TYPE            IHESTP         SCF         [  0]    ***   
       HF2_FILE             IHF2Fl         USE         [  1]    ***   
       HFSTABILITY          ISTABL         OFF         [  0]    ***   
       INCORE               INCORE         OFF         [  0]    ***   
       INPUT_MRCC           IMRCC          ON          [  1]    ***   
       INTEGRALS            INTTYP         VMOL        [  1]    ***   
       JODA_PRINT           IJPRNT              0               ***   
       KEYWORD_OUT          IDMPKW         NO          [  0]    ***   
       LINDEP_TOL           ILINDP              8               ***   
       LINEQ_CONV           IZTACN          10D-  7           cycles  
       LINEQ_EXPOR          ILMAXD              5               ***   
       LINEQ_MAXCY          ILMAXC            100               ***   
       LINEQ_TYPE           ILTYPE         DIIS        [  1]    ***   
       LOCK_ORBOCC          ILOCOC         OFF         [  0]    ***   
       MEMORY_SIZE          IMEMSZ         625000000           words  
       MEM_UNIT             IMEMU          MB          [  2]    ***   
       MRCC                 IMRCCC         OFF         [  0]    ***   
       MULTIPLICTY          IMULTP              1               ***   
       NACOUPLING           IVCOUP         OFF         [  0]    ***   
       NEGEVAL              IDIE           ABORT       [  0]    ***   
       NEWNORM              INEWNO         OFF         [  0]    ***   
       NON-HF               INONHF         OFF         [  0]    ***   
       NTOP_TAMP            ITOPT2             15               ***   
       NUC_MODEL            INUCMO         POINT       [  0]    ***   
       OCCUPATION           IOCCU   ESTIMATED BY SCF 
       OPEN-SHELL           IOPEN          SPIN-ORBITAL[  0]    ***   
       OPTVIB               IOPTVB         OFF         [  0]    ***   
       ORBITALS             IORBTP         STANDARD    [  0]    ***   
       PARALLEL             IPARAL         ON          [  1]    ***   
       PARA_INT             IPINTS         ON          [  1]    ***   
       PARA_PRINT           IPPRIN              0               ***   
       PERT_ORB             IPTORB         CANONICAL   [  1]    ***   
       POINTS               IGRDFD              0               ***   
       PRINT                IPRNT               0               ***   
       PROPS                IPROPS         OFF         [  0]    ***   
       PROP_INTEGR          IINTYP         INTERNAL    [  0]    ***   
       PSI                  IPSI           OFF         [  0]    ***   
       QC_ALG               IQCALG         FLM         [  0]    ***   
       QC_LINALG            IQCLIN         TRIDIAG     [  2]    ***   
       QC_MAXCYC            IQCMAX          10D-100           cycles  
       QC_MAXSCFCY          IQCMSC          10D- 15           cycles  
       QC_RTRUST            IQCRTR          10D-  0           x 10-3  
       QC_SKIPSCF           IQCSKI         OFF         [  0]    ***   
       QC_START             IQCSTA          10D-  1             ***   
       QRHFGUESS            IQGUES         OFF         [  0]    ***   
       QUARTIC              IQUART         OFF         [  0]    ***   
       RAMAN_INT            IRAMIN         OFF         [  0]    ***   
       RAMAN_ORB            IRAMRE         UNRELAXED   [  0]    ***   
       RDO                  IRDOFM         ON          [  1]    ***   
       REDUCE_REPR          REDREP         Ir          [  0]    ***   
       REFERENCE            IREFNC         RHF         [  0]    ***   
       RELATIVIST           IRELAT         OFF         [  0]    ***   
       RELAX_DENS           IRDENS         ON          [  1]    ***   
       RESET_FLAGS          IRESET         OFF         [  0]    ***   
       RESTART_CC           ICCRES         OFF         [  0]    ***   
       ROT_EVEC             ROTVEC              0               ***   
       SAVE_INTS            ISVINT         OFF         [  0]    ***   
       SCALE_ON             ISTCRT              0               ***   
       SCF_CONV             ISCFCV          10D-  8             ***   
       SCF_DAMPING          IDAMP               0             x 10-3  
       SCF_EXPORDE          IRPPOR              6               ***   
       SCF_EXPSTAR          IRPPLS              8               ***   
       SCF_EXTRAPO          IRPP           ON          [  1]    ***   
       SCF_MAXCYC           ISCFCY            150              cycles 
       SCF_NOSTOP           ISCFST         OFF         [  0]    ***   
       SCF_PRINT            ISCFPR              0               ***   
       SCF_PROG             ISCFPR         SCF         [  0]    ***   
       SD_FIELD             IFINSD              0             x 10-6  
       SOPERT               IPERSO         OFF         [  0]    ***   
       SPHERICAL            IDFGHI         ON          [  1]    ***   
       SPINORBIT            ISOCAL         OFF         [  0]    ***   
       SPINROTATIO          ISRCON         OFF         [  0]    ***   
       SPIN_FLIP            ISPFLP         OFF         [  0]    ***   
       SPIN_ORBIT           ISPORB         OFF         [  0]    ***   
       SPIN_SCAL            ISCSMP         OFF         [  0]    ***   
       STEEPSCALE           ISTPSC              1000          x 10-3  
       SUBGROUP             ISUBGP         DEFAULT     [  0]    ***   
       SUBGRPAXIS           ISBXYZ         X           [  0]    ***   
       SYMMETRY             ISYM           ON          [  0]    ***   
       SYM_CHECK            ISYMCK         OVERRIDE    [  1]    ***   
       T3_EXTRAPOL          IT3EXT         OFF         [  0]    ***   
       T4_EXTRAPOL          IT4EXP         OFF         [  0]    ***   
       TAMP_SUM             IEVERY              5               ***   
       TESTSUITE            ITESTS         OFF         [  0]    ***   
       THERMOCH             ITHERM         ON          [  1]    ***   
       TOL_CHOLESK          ITOLCH          10D-  4             ***   
       TRANGRAD             IRESRM         OFF         [  0]    ***   
       TRANS_INV            ITRAIN         USE         [  0]    ***   
       TREAT_PERT           ITREAT         SIMULTANEOUS[  0]    ***   
       TRIP_ALGORI          ITRALG         NORMAL      [  0]    ***   
       UIJ_THRESHO          IUIJTH              1               ***   
       UNITS                IUNITS         ANGSTROM    [  0]    ***   
       UNOS                 IUNOS          OFF         [  0]    ***   
       UPDATE_HESS          IHUPDT         ON          [  1]    ***   
       VIBPHASE             ISETPH         STANDARD    [  0]    ***   
       VIBRATION            IVIB           ANALYTIC    [  1]    ***   
       VIB_ALGORIT          IGEALG         STANDARD    [  0]    ***   
       VNATORB              IVNORB         OFF         [  0]    ***   
       VTRAN                IVTRAN         PARTIAL     [  2]    ***   
       XFIELD               IXEFLD              0             x 10-6  
       XFORM_TOL            IXFTOL          10D- 11             ***   
       YFIELD               IYEFLD              0             x 10-6  
       ZFIELD               IZEFLD              0             x 10-6  
       ZSCALE_EXP           IZEXPS         OFF         [  0]    ***   
    -------------------------------------------------------------------
   4 entries found in Z-matrix 
   Job Title : title                                                                           
   There are  6 unique internal coordinates.
   Of these,  0 will be optimized.
   User supplied Z-matrix: 
--------------------------------------------------------------------------------
       SYMBOL    BOND      LENGTH    ANGLE     ANGLE     DIHED     ANGLE
                  TO      (ANGST)    WRT      (DEG)      WRT      (DEG)
--------------------------------------------------------------------------------
        C    
        N          1         R12  
        O          1         R13        2        A213 
        H          1         R14        3        A314       2        D2314
                  *Initial values for internal coordinates* 
                      Name             Value
                        R12             1.2645598045
                        R13             1.3112224582
                        A213           89.9247097295
                        R14             1.0818315227
                        A314          131.0054208675
                        D2314         180.0000000000
--------------------------------------------------------------------------------
   Rotational constants (in cm-1): 
          0.4833214950             0.6781882157             1.6820878448
   Rotational constants (in MHz): 
      14489.6159276257         20331.5740642969         50427.7320213047
********************************************************************************
   The full molecular point group is C s .
   The largest Abelian subgroup of the full molecular point group is C s .
   The computational point group is C s .
********************************************************************************
--------------------------------------------------------------------------------
   Analysis of internal coordinates specified by Z-matrix 
--------------------------------------------------------------------------------
   *The nuclear repulsion energy is   59.786973813718028 a.u.
   *There are   5 degrees of freedom within the tot. symm. molecular subspace.
   *Z-matrix requests optimization of   0 coordinates.
   *The optimization is constrained.
   *The following   5 parameters can have non-zero 
    derivatives within the totally symmetric subspace:
             A314 [ 5]  R14  [ 4]  A213 [ 3]  R12  [ 1]  R13  [ 2]
   *The following   0 parameters are to be optimized:

   *The following coordinates must be varied in an  unconstrained optimization.
             A314 [ 5]  R14  [ 4]  A213 [ 3]  R12  [ 1]  R13  [ 2]
--------------------------------------------------------------------------------


 ----------------------------------------------------------------
         Coordinates used in calculation (QCOMP) 
 ----------------------------------------------------------------
 Z-matrix   Atomic            Coordinates (in bohr)
  Symbol    Number           X              Y              Z
 ----------------------------------------------------------------
     C         6        -0.18364555     1.14495568    -0.00000000
     N         7        -1.75245068    -0.65764901    -0.00000000
     O         8         1.68333663    -0.48419359     0.00000000
     H         1        -0.17997437     3.18931811    -0.00000000
 ----------------------------------------------------------------
 
   Interatomic distance matrix (Angstroms) 
 
                 C             N             O             H    
                [ 1]        [ 2]        [ 3]        [ 4]
  C    [ 1]     0.00000
  N    [ 2]     1.26456     0.00000
  O    [ 3]     1.31122     1.82046     0.00000
  H    [ 4]     1.08183     2.19923     2.17971     0.00000
 rotcon2
   Rotational constants (in cm-1): 
          1.6820878448             0.6781882157             0.4833214950
   Rotational constants (in MHz): 
      50427.7320213047         20331.5740642970         14489.6159276257
  There are   3 frozen-core orbitals.
  There are  104 basis functions.
 @CHECKOUT-I, Total execution time (CPU/WALL):        0.10/       0.81 seconds.
--executable xjoda finished with status     0 in        2.45 seconds (walltime).
 --invoking executable--
/home/orgChemistry/bin/cfour_v21/bin/xvmol
 SERIAL VERSION OF MOLECULE STARTED
********************************************************************************
                    INPUT FROM MOL FILE
********************************************************************************
INTGRL        1    0    1    0    0    0    0    0    0                         
         *** CFOUR Program System (Release V0.1) ***                            
title                                                                           
    4    1 Z          0.10E-08              0    0                              
   9999.00      3.00                                                            
          6.00000000    1    4    1    1    1    1                              
C #1  -0.183645547316161   1.144955683826604  -0.000000000000000                
   10    4                                                                      
   8236.00000000000       5.310000000000000E-004 -1.130000000000000E-004        
  0.000000000000000E+000  0.000000000000000E+000                                
   1235.00000000000       4.108000000000000E-003 -8.780000000000000E-004        
  0.000000000000000E+000  0.000000000000000E+000                                
   280.800000000000       2.108700000000000E-002 -4.540000000000000E-003        
  0.000000000000000E+000  0.000000000000000E+000                                
   79.2700000000000       8.185300000000000E-002 -1.813300000000000E-002        
  0.000000000000000E+000  0.000000000000000E+000                                
   25.5900000000000       0.234817000000000      -5.576000000000000E-002        
  0.000000000000000E+000  0.000000000000000E+000                                
   8.99700000000000       0.434401000000000      -0.126895000000000             
  0.000000000000000E+000  0.000000000000000E+000                                
   3.31900000000000       0.346129000000000      -0.170352000000000             
  0.000000000000000E+000  0.000000000000000E+000                                
  0.905900000000000       3.937800000000000E-002  0.140382000000000             
   1.00000000000000       0.000000000000000E+000                                
  0.364300000000000      -8.983000000000000E-003  0.598684000000000             
  0.000000000000000E+000  0.000000000000000E+000                                
  0.128500000000000       2.385000000000000E-003  0.395389000000000             
  0.000000000000000E+000   1.00000000000000                                     
    5    3                                                                      
   18.7100000000000       1.403100000000000E-002  0.000000000000000E+000        
  0.000000000000000E+000                                                        
   4.13300000000000       8.686600000000000E-002  0.000000000000000E+000        
  0.000000000000000E+000                                                        
   1.20000000000000       0.290216000000000       0.000000000000000E+000        
  0.000000000000000E+000                                                        
  0.382700000000000       0.501008000000000        1.00000000000000             
  0.000000000000000E+000                                                        
  0.120900000000000       0.343406000000000       0.000000000000000E+000        
   1.00000000000000                                                             
    2    2                                                                      
   1.09700000000000        1.00000000000000       0.000000000000000E+000        
  0.318000000000000       0.000000000000000E+000   1.00000000000000             
    1    1                                                                      
  0.761000000000000        1.00000000000000                                     
          7.00000000    1    4    1    1    1    1                              
N #2  -1.752450676904717  -0.657649011101297  -0.000000000000000                
   10    4                                                                      
   11420.0000000000       5.230000000000000E-004 -1.150000000000000E-004        
  0.000000000000000E+000  0.000000000000000E+000                                
   1712.00000000000       4.045000000000000E-003 -8.950000000000000E-004        
  0.000000000000000E+000  0.000000000000000E+000                                
   389.300000000000       2.077500000000000E-002 -4.624000000000000E-003        
  0.000000000000000E+000  0.000000000000000E+000                                
   110.000000000000       8.072699999999999E-002 -1.852800000000000E-002        
  0.000000000000000E+000  0.000000000000000E+000                                
   35.5700000000000       0.233074000000000      -5.733900000000000E-002        
  0.000000000000000E+000  0.000000000000000E+000                                
   12.5400000000000       0.433501000000000      -0.132076000000000             
  0.000000000000000E+000  0.000000000000000E+000                                
   4.64400000000000       0.347472000000000      -0.172510000000000             
  0.000000000000000E+000  0.000000000000000E+000                                
   1.29300000000000       4.126200000000000E-002  0.151814000000000             
   1.00000000000000       0.000000000000000E+000                                
  0.511800000000000      -8.508000000000000E-003  0.599944000000000             
  0.000000000000000E+000  0.000000000000000E+000                                
  0.178700000000000       2.384000000000000E-003  0.387462000000000             
  0.000000000000000E+000   1.00000000000000                                     
    5    3                                                                      
   26.6300000000000       1.467000000000000E-002  0.000000000000000E+000        
  0.000000000000000E+000                                                        
   5.94800000000000       9.176400000000000E-002  0.000000000000000E+000        
  0.000000000000000E+000                                                        
   1.74200000000000       0.298683000000000       0.000000000000000E+000        
  0.000000000000000E+000                                                        
  0.555000000000000       0.498487000000000        1.00000000000000             
  0.000000000000000E+000                                                        
  0.172500000000000       0.337023000000000       0.000000000000000E+000        
   1.00000000000000                                                             
    2    2                                                                      
   1.65400000000000        1.00000000000000       0.000000000000000E+000        
  0.469000000000000       0.000000000000000E+000   1.00000000000000             
    1    1                                                                      
   1.09300000000000        1.00000000000000                                     
          8.00000000    1    4    1    1    1    1                              
O #3   1.683336634249277  -0.484193585772662   0.000000000000000                
   10    4                                                                      
   15330.0000000000       5.080000000000000E-004 -1.150000000000000E-004        
  0.000000000000000E+000  0.000000000000000E+000                                
   2299.00000000000       3.929000000000000E-003 -8.950000000000000E-004        
  0.000000000000000E+000  0.000000000000000E+000                                
   522.400000000000       2.024300000000000E-002 -4.636000000000000E-003        
  0.000000000000000E+000  0.000000000000000E+000                                
   147.300000000000       7.918100000000000E-002 -1.872400000000000E-002        
  0.000000000000000E+000  0.000000000000000E+000                                
   47.5500000000000       0.230687000000000      -5.846300000000000E-002        
  0.000000000000000E+000  0.000000000000000E+000                                
   16.7600000000000       0.433118000000000      -0.136463000000000             
  0.000000000000000E+000  0.000000000000000E+000                                
   6.20700000000000       0.350260000000000      -0.175740000000000             
  0.000000000000000E+000  0.000000000000000E+000                                
   1.75200000000000       4.272800000000000E-002  0.160934000000000             
   1.00000000000000       0.000000000000000E+000                                
  0.688200000000000      -8.154000000000000E-003  0.603418000000000             
  0.000000000000000E+000  0.000000000000000E+000                                
  0.238400000000000       2.381000000000000E-003  0.378765000000000             
  0.000000000000000E+000   1.00000000000000                                     
    5    3                                                                      
   34.4600000000000       1.592800000000000E-002  0.000000000000000E+000        
  0.000000000000000E+000                                                        
   7.74900000000000       9.974000000000000E-002  0.000000000000000E+000        
  0.000000000000000E+000                                                        
   2.28000000000000       0.310492000000000       0.000000000000000E+000        
  0.000000000000000E+000                                                        
  0.715600000000000       0.491026000000000        1.00000000000000             
  0.000000000000000E+000                                                        
  0.214000000000000       0.336337000000000       0.000000000000000E+000        
   1.00000000000000                                                             
    2    2                                                                      
   2.31400000000000        1.00000000000000       0.000000000000000E+000        
  0.645000000000000       0.000000000000000E+000   1.00000000000000             
    1    1                                                                      
   1.42800000000000        1.00000000000000                                     
          1.00000000    1    3    1    1    1                                   
H #4  -0.179974371268750   3.189318106889099  -0.000000000000001                
    5    3                                                                      
   33.8700000000000       6.068000000000000E-003  0.000000000000000E+000        
  0.000000000000000E+000                                                        
   5.09500000000000       4.530800000000000E-002  0.000000000000000E+000        
  0.000000000000000E+000                                                        
   1.15900000000000       0.202822000000000       0.000000000000000E+000        
  0.000000000000000E+000                                                        
  0.325800000000000       0.503903000000000        1.00000000000000             
  0.000000000000000E+000                                                        
  0.102700000000000       0.383421000000000       0.000000000000000E+000        
   1.00000000000000                                                             
    2    2                                                                      
   1.40700000000000        1.00000000000000       0.000000000000000E+000        
  0.388000000000000       0.000000000000000E+000   1.00000000000000             
    1    1                                                                      
   1.05700000000000        1.00000000000000                                     
FINISH                                                                          
 
********************************************************************************
 ONE- AND TWO-ELECTRON INTEGRALS OVER SYMMETRY-ADAPTED AOS ARE CALCULATED.

  SPHERICAL HARMONICS ARE USED.
  
  INTEGRALS LESS THAN  0.10E-13 ARE NEGLECTED.

  NUCLEAR REPULSION ENERGY :   59.7869738137 A.U.
  @MOLECU-I, ONE ELECTRON INTEGRALS (CPU/WALL):        0.03/       0.03 SECONDS.
  @TWOEL-I,    3208898 INTEGRALS OF SYMMETRY TYPE  I I I I
  @TWOEL-I,    2785280 INTEGRALS OF SYMMETRY TYPE  I J I J
  @TWOEL-I,    1451192 INTEGRALS OF SYMMETRY TYPE  I I J J
  @TWOEL-I, TOTAL NUMBER OF 2-E INTEGRALS    7445370.
  @MOLECU-I, TWO ELECTRON INTEGRALS (CPU/WALL):        3.51/       3.72 SECONDS.
 @CHECKOUT-I, Total execution time (CPU/WALL):        3.55/       3.78 seconds.

Running with 24 threads/proc

--executable xvmol finished with status     0 in        4.71 seconds (walltime).
 --invoking executable--
/home/orgChemistry/bin/cfour_v21/bin/xvmol2ja
 @GETMEM-I,  Allocated    4768 MB of main memory.
 @CHECKOUT-I, Total execution time (CPU/WALL):        0.01/       0.04 seconds.
--executable xvmol2ja finished with status     0 in        0.27 seconds (walltime).
 --invoking executable--
/home/orgChemistry/bin/cfour_v21/bin/xvscf
  There are  104 functions in the AO basis.

  There are 2 irreducible representations.

       Irrep        # of functions
         1                 70
         2                 34


  Parameters for SCF calculation: 
        SCF reference function:  RHF  
  Maximum number of iterations:  150
     Full symmetry point group: C s 
     Computational point group: C s 
        Initial density matrix: MOREAD                 
     SCF convergence tolerance: 10**(- 8)
  DIIS convergence acceleration:  ON
          Latest start for DIIS:   8
                     DIIS order:   6

  Memory information:     546072 words required.
  Fock matrices are constructed from AO integral file.
 @GETMEM-I,  Allocated       4 MB of main memory.
  Initialization and symmetry analysis required      0.002 seconds.

  @INITGES-I, Occupancies from core Hamiltonian:

          Alpha population by irrep:   9    2
           Beta population by irrep:   9    2


 total no. of electrons in initial guess :  0.000000000000000E+000
  --------------------------------------------------------------------
  Iteration         Total Energy            Largest Density Difference
  --------------------------------------------------------------------
       0            59.786973813718028              0.0000000000D+00
   current occupation vector 
     9  2
     9  2
       1          -141.844632706829998              0.1187900205D+02
   current occupation vector 
     9  2
     9  2
       2          -143.694048174366628              0.6016818658D+02
   current occupation vector 
     9  2
     9  2
       3          -152.817229456103888              0.6010193305D+02
   current occupation vector 
     9  2
     9  2
       4          -149.178174923639290              0.1123691532D+02
   current occupation vector 
     9  2
     9  2
       5          -140.701240292873734              0.1109606460D+02
   current occupation vector 
     9  2
     9  2
       6          -142.140323275537042              0.7639292252D+01
   current occupation vector 
     9  2
     9  2
       7          -132.509189282435216              0.8620780341D+01
   current occupation vector 
     9  2
     9  2
       8          -137.883207254589621              0.8620925127D+01
   current occupation vector 
     9  2
     9  2
       9          -159.433804443687904              0.7355566966D+01
   current occupation vector 
     9  2
     9  2
      10          -163.367418044048293              0.9077541576D+00
   current occupation vector 
     9  2
     9  2
      11          -167.056502079924485              0.1779263250D+01
   current occupation vector 
     9  2
     9  2
      12          -167.575846390212604              0.9470672381D+00
   current occupation vector 
     9  2
     9  2
      13          -167.648006956028269              0.3055086542D+00
   current occupation vector 
     9  2
     9  2
      14          -167.660333914315004              0.9062059593D-01
   current occupation vector 
     9  2
     9  2
      15          -167.662222819308255              0.4052884903D-01
   current occupation vector 
     9  2
     9  2
      16          -167.662673345953294              0.2608215483D-01
   current occupation vector 
     9  2
     9  2
      17          -167.662871472104285              0.1924667264D-01
   current occupation vector 
     9  2
     9  2
      18          -167.662949655851605              0.1341975031D-01
   current occupation vector 
     9  2
     9  2
      19          -167.662964568270155              0.4930020606D-02
   current occupation vector 
     9  2
     9  2
      20          -167.662968437623050              0.3554704298D-02
   current occupation vector 
     9  2
     9  2
      21          -167.662968685918770              0.5979267981D-03
   current occupation vector 
     9  2
     9  2
      22          -167.662968735420264              0.3746268996D-03
   current occupation vector 
     9  2
     9  2
      23          -167.662968739910497              0.8311686742D-04
   current occupation vector 
     9  2
     9  2
      24          -167.662968740858474              0.6044133784D-04
   current occupation vector 
     9  2
     9  2
      25          -167.662968740912419              0.1120087700D-04
   current occupation vector 
     9  2
     9  2
      26          -167.662968740921343              0.4678646645D-05
   current occupation vector 
     9  2
     9  2
      27          -167.662968740925265              0.2467341462D-05
   current occupation vector 
     9  2
     9  2
      28          -167.662968740924839              0.1688576001D-05
   current occupation vector 
     9  2
     9  2
      29          -167.662968740926090              0.7651731107D-06
   current occupation vector 
     9  2
     9  2
      30          -167.662968740925749              0.3136222717D-06
   current occupation vector 
     9  2
     9  2
      31          -167.662968740925891              0.2158065735D-06
   current occupation vector 
     9  2
     9  2
      32          -167.662968740925834              0.3253300990D-07
   current occupation vector 
     9  2
     9  2
      33          -167.662968740926971              0.2191465609D-07
   current occupation vector 
     9  2
     9  2

  SCF has converged.

 Density matrix saved to file den.dat
 total electron number:   22.0000000000001     
     E(SCF)=      -167.662968740927028              0.8801485429D-08

  Eigenvector printing suppressed.

 @PUTMOS-I, Writing converged MOs to NEWMOS. 
 @PUTMOS-I, Symmetry   1 Full Blocks 17 Partial Blocksize   2
 @PUTMOS-I, Symmetry   2 Full Blocks  8 Partial Blocksize   2
 @PUTFOCK-I, Writing converged Fock matrix to NEWFOCK. 
 @PUTFOCK-I, Symmetry   1 Full Blocks 17 Partial Blocksize   2
 @PUTFOCK-I, Symmetry   2 Full Blocks  8 Partial Blocksize   2


 
  ORBITAL EIGENVALUES (ALPHA)  (1H = 27.2113834 eV)

       MO #        E(hartree)               E(eV)           FULLSYM    COMPSYM
       ----   --------------------   --------------------   -------   ---------
    1     1         -20.6002438435        -560.5611333581     A'        A'  (1)
    2     2         -15.6741164208        -426.5143913831     A'        A'  (1)
    3     3         -11.3946567783        -310.0643743045     A'        A'  (1)
    4     4          -1.4417173122         -39.2311225372     A'        A'  (1)
    5     5          -1.1534658906         -31.3874025877     A'        A'  (1)
    6     6          -0.8552525521         -23.2726050985     A'        A'  (1)
    7     7          -0.6714311717         -18.2705710412     A'        A'  (1)
    8    71          -0.6276112686         -17.0781708573     A''       A'' (2)
    9     8          -0.6004761568         -16.3397869244     A'        A'  (1)
   10     9          -0.4795584110         -13.0494477849     A'        A'  (1)
   11    72          -0.4306138904         -11.7175996703     A''       A'' (2)
  +++++++++++++++++++++++++++++++++++++++++++++++++++++++++++++++++++++++++++++
   12    10           0.0624146903           1.6983900688     A'        A'  (1)
   13    73           0.1194834657           3.2513103954     A''       A'' (2)
   14    11           0.1369585021           3.7268303099     A'        A'  (1)
   15    12           0.2551726648           6.9436012141     A'        A'  (1)
   16    13           0.2867541123           7.8029760926     A'        A'  (1)
   17    74           0.4135067510          11.2520907395     A''       A'' (2)
   18    14           0.4878409302          13.2748265886     A'        A'  (1)
   19    15           0.5410795429          14.7235228931     A'        A'  (1)
   20    16           0.5566735610          15.1478576973     A'        A'  (1)
   21    17           0.5779528948          15.7268978077     A'        A'  (1)
   22    75           0.6760020679          18.3949514493     A''       A'' (2)
   23    18           0.6888207932          18.7437666972     A'        A'  (1)
   24    19           0.6985029410          19.0072313323     A'        A'  (1)
   25    20           0.7678924894          20.8954169386     A'        A'  (1)
   26    76           0.8111494473          22.0724986061     A''       A'' (2)
   27    77           0.8764844536          23.8503545098     A''       A'' (2)
   28    21           0.9192191426          25.0132245192     A'        A'  (1)
   29    78           0.9249845223          25.1701084764     A''       A'' (2)
   30    22           1.0002732020          27.2188176036     A'        A'  (1)
   31    23           1.1175449287          30.4099435228     A'        A'  (1)
   32    79           1.1216634632          30.5220145430     A''       A'' (2)
   33    24           1.1711123888          31.8675882172     A'        A'  (1)
   34    25           1.3052879904          35.5186919541     A'        A'  (1)
   35    26           1.3431464553          36.5488731582     A'        A'  (1)
   36    80           1.4705660536          40.0161367002     A''       A'' (2)
   37    27           1.4815124677          40.3140037712     A'        A'  (1)
   38    28           1.6129255348          43.8899351243     A'        A'  (1)
   39    29           1.7326103862          47.1467255023     A'        A'  (1)
   40    81           1.7538803175          47.7255097575     A''       A'' (2)
   41    30           1.8183278830          49.4792171719     A'        A'  (1)
   42    82           1.8965968346          51.6090236206     A''       A'' (2)
   43    31           1.9039706646          51.8096757359     A'        A'  (1)
   44    83           2.0945204695          56.9947995347     A''       A'' (2)
   45    32           2.1104887547          57.4293186663     A'        A'  (1)
   46    33           2.2843784532          62.1610979212     A'        A'  (1)
   47    84           2.3719819758          64.5449109620     A''       A'' (2)
   48    34           2.3766401262          64.6716656784     A'        A'  (1)
   49    35           2.6259736487          71.4563757541     A'        A'  (1)
   50    36           2.7525769257          74.9014260624     A'        A'  (1)
   51    37           2.8135535723          76.5606849734     A'        A'  (1)
   52    85           2.9918723077          81.4129844492     A''       A'' (2)
   53    38           3.0926009399          84.1539498777     A'        A'  (1)
   54    86           3.1168180427          84.8129307488     A''       A'' (2)
   55    87           3.1496801211          85.7071533621     A''       A'' (2)
   56    39           3.1889318670          86.7752476684     A'        A'  (1)
   57    88           3.2184215874          87.5777037573     A''       A'' (2)
   58    40           3.2498845826          88.4338553831     A'        A'  (1)
   59    89           3.3533128299          91.2482810734     A''       A'' (2)
   60    41           3.3598239549          91.4254577937     A'        A'  (1)
   61    42           3.4494437624          93.8641367344     A'        A'  (1)
   62    43           3.5472205412          96.5247781516     A'        A'  (1)
   63    90           3.5592893022          96.8531858342     A''       A'' (2)
   64    44           3.7921795322         103.1904511722     A'        A'  (1)
   65    45           3.8245489234         104.0712670873     A'        A'  (1)
   66    91           3.8929464905         105.9324595095     A''       A'' (2)
   67    46           3.9609869220         107.7839337768     A'        A'  (1)
   68    47           4.0634508617         110.5721193260     A'        A'  (1)
   69    92           4.1068734674         111.7537084962     A''       A'' (2)
   70    93           4.2446087352         115.5016756754     A''       A'' (2)
   71    48           4.2835893139         116.5623911482     A'        A'  (1)
   72    49           4.3295031157         117.8117692138     A'        A'  (1)
   73    94           4.4249867184         120.4100101356     A''       A'' (2)
   74    95           4.5379785251         123.4846735072     A''       A'' (2)
   75    50           4.5682590656         124.3086489048     A'        A'  (1)
   76    51           4.6031693632         125.2586063966     A'        A'  (1)
   77    52           4.7866869187         130.2523729611     A'        A'  (1)
   78    96           4.9087439998         133.5737149912     A''       A'' (2)
   79    53           4.9544615872         134.8177537907     A'        A'  (1)
   80    97           5.1038223130         138.8820657656     A''       A'' (2)
   81    54           5.1308236304         139.6168089652     A'        A'  (1)
   82    55           5.2642439417         143.2473602078     A'        A'  (1)
   83    98           5.2653128700         143.2764472267     A''       A'' (2)
   84    56           5.3097423018         144.4854335304     A'        A'  (1)
   85    57           5.3690310855         146.0987633539     A'        A'  (1)
   86    58           5.6370524175         153.3919945798     A'        A'  (1)
   87    99           5.6444172232         153.5924011294     A''       A'' (2)
   88   100           5.7164217354         155.5517435185     A''       A'' (2)
   89    59           5.7460193746         156.3571362258     A'        A'  (1)
   90    60           5.8061665069         157.9938229034     A'        A'  (1)
   91    61           5.9901998025         163.0016234694     A'        A'  (1)
   92   101           6.0970121170         165.9081343102     A''       A'' (2)
   93   102           6.3731957106         173.4234719657     A''       A'' (2)
   94    62           6.3748001820         173.4671318501     A'        A'  (1)
   95    63           6.5237880209         177.5212970560     A'        A'  (1)
   96   103           6.8316948357         185.8998674456     A''       A'' (2)
   97    64           6.9261461838         188.4700192926     A'        A'  (1)
   98    65           6.9645143596         189.5140704339     A'        A'  (1)
   99   104           7.2521552552         197.3411771259     A''       A'' (2)
  100    66           7.4591391040         202.9734939931     A'        A'  (1)
  101    67           7.4887611621         203.7795511739     A'        A'  (1)
  102    68           9.3383888804         254.1104801628     A'        A'  (1)
  103    69          11.0818101620         301.5513850850     A'        A'  (1)
  104    70          13.3832143242         364.1757760989     A'        A'  (1)


  VSCF finished.

 @CHECKOUT-I, Total execution time (CPU/WALL):        2.90/       5.21 seconds.
--executable xvscf finished with status     0 in        6.05 seconds (walltime).
 --invoking executable--
/home/orgChemistry/bin/cfour_v21/bin/xvtran
 @GETMEM-I,  Allocated    4768 MB of main memory.
  Partial RHF integral transformation
  Frozen-core orbitals requested within analytic derivative calculation
  Transformation of IIII integrals :
  1 pass through the AO integral file was required.
     3208898 AO integrals were read.
     1337623 MO integrals were written to HF2.
  Transformation of IIJJ integrals :
  1 pass through the AO integral file was required.
     1451192 AO integrals were read.
      480127 MO integrals were written to HF2.
  Transformation of IJIJ integrals :
  1 pass through the AO integral file was required.
     2785280 AO integrals were read.
      927262 MO integrals were written to HF2.
  Summary of active molecular orbitals: 
------------------------------------------------------------------------
 
  Index      Eigenvalue    Symmetry    Index      Eigenvalue    Symmetry
------------------------------------------------------------------------
     1       -20.6002438        1        53         4.6031694        1
     2       -15.6741164        1        54         4.7866869        1
     3       -11.3946568        1        55         4.9544616        1
     4        -1.4417173        1        56         5.1308236        1
     5        -1.1534659        1        57         5.2642439        1
     6        -0.8552526        1        58         5.3097423        1
     7        -0.6714312        1        59         5.3690311        1
     8        -0.6004762        1        60         5.6370524        1
     9        -0.4795584        1        61         5.7460194        1
    10        -0.6276113        2        62         5.8061665        1
    11        -0.4306139        2        63         5.9901998        1
    12         0.0624147        1        64         6.3748002        1
    13         0.1369585        1        65         6.5237880        1
    14         0.2551727        1        66         6.9261462        1
    15         0.2867541        1        67         6.9645144        1
    16         0.4878409        1        68         7.4591391        1
    17         0.5410795        1        69         7.4887612        1
    18         0.5566736        1        70         9.3383889        1
    19         0.5779529        1        71        11.0818102        1
    20         0.6888208        1        72        13.3832143        1
    21         0.6985029        1        73         0.1194835        2
    22         0.7678925        1        74         0.4135068        2
    23         0.9192191        1        75         0.6760021        2
    24         1.0002732        1        76         0.8111494        2
    25         1.1175449        1        77         0.8764845        2
    26         1.1711124        1        78         0.9249845        2
    27         1.3052880        1        79         1.1216635        2
    28         1.3431465        1        80         1.4705661        2
    29         1.4815125        1        81         1.7538803        2
    30         1.6129255        1        82         1.8965968        2
    31         1.7326104        1        83         2.0945205        2
    32         1.8183279        1        84         2.3719820        2
    33         1.9039707        1        85         2.9918723        2
    34         2.1104888        1        86         3.1168180        2
    35         2.2843785        1        87         3.1496801        2
    36         2.3766401        1        88         3.2184216        2
    37         2.6259736        1        89         3.3533128        2
    38         2.7525769        1        90         3.5592893        2
    39         2.8135536        1        91         3.8929465        2
    40         3.0926009        1        92         4.1068735        2
    41         3.1889319        1        93         4.2446087        2
    42         3.2498846        1        94         4.4249867        2
    43         3.3598240        1        95         4.5379785        2
    44         3.4494438        1        96         4.9087440        2
    45         3.5472205        1        97         5.1038223        2
    46         3.7921795        1        98         5.2653129        2
    47         3.8245489        1        99         5.6444172        2
    48         3.9609869        1       100         5.7164217        2
    49         4.0634509        1       101         6.0970121        2
    50         4.2835893        1       102         6.3731957        2
    51         4.3295031        1       103         6.8316948        2
    52         4.5682591        1       104         7.2521553        2
------------------------------------------------------------------------
  -20.6002438434678       -15.6741164208166       -11.3946567782566     
  -1.44171731221709       -1.15346589059137      -0.855252552080882     
 -0.671431171749299      -0.600476156770395      -0.479558411017175     
 -0.627611268646924      -0.430613890445132       6.241469034618505E-002
  0.136958502077136       0.255172664763332       0.286754112348547     
  0.487840930150955       0.541079542949835       0.556673561008667     
  0.577952894806555       0.688820793183871       0.698502940954758     
  0.767892489385474       0.919219142648371        1.00027320197107     
   1.11754492874475        1.17111238883910        1.30528799039568     
   1.34314645532630        1.48151246772694        1.61292553484431     
   1.73261038622300        1.81832788302336        1.90397066456759     
   2.11048875472673        2.28437845321921        2.37664012621834     
   2.62597364873775        2.75257692566838        2.81355357233995     
   3.09260093985982        3.18893186696284        3.24988458260728     
   3.35982395491646        3.44944376236339        3.54722054122574     
   3.79217953219420        3.82454892342049        3.96098692199425     
   4.06345086174309        4.28358931388075        4.32950311573564     
   4.56825906560941        4.60316936318025        4.78668691871995     
   4.95446158723157        5.13082363042338        5.26424394166602     
   5.30974230183378        5.36903108549487        5.63705241754754     
   5.74601937458989        5.80616650689783        5.99019980253617     
   6.37480018197487        6.52378802086369        6.92614618382846     
   6.96451435960216        7.45913910400991        7.48876116213450     
   9.33838888039867        11.0818101620283        13.3832143241538     
  0.119483465711250       0.413506750985117       0.676002067918906     
  0.811149447332529       0.876484453554642       0.924984522338050     
   1.12166346320274        1.47056605362622        1.75388031751119     
   1.89659683456495        2.09452046949843        2.37198197582410     
   2.99187230771835        3.11681804273077        3.14968012108107     
   3.21842158738923        3.35331282985867        3.55928930221981     
   3.89294649052846        4.10687346738165        4.24460873515733     
   4.42498671844717        4.53797852509172        4.90874399980634     
   5.10382231303882        5.26531287000538        5.64441722317449     
   5.71642173541744        6.09701211700393        6.37319571064894     
   6.83169483568441        7.25215525521064     
 @CHECKOUT-I, Total execution time (CPU/WALL):        0.63/       0.90 seconds.
--executable xvtran finished with status     0 in        1.05 seconds (walltime).
 --invoking executable--
/home/orgChemistry/bin/cfour_v21/bin/xintprc
 @GETMEM-I,  Allocated    4768 MB of main memory.
  @GMOIAA-I, Processing MO integrals for spin case AA.
  @GMOIAA-I, Generation of integral list completed.
                      TYPE                NUMBER
                      ----               --------
                      PPPP                     0
                      PPPH               2283167
                      PPHH                272446
                      PHPH                151248
                      PHHH                 36804
                      HHHH                  1347

                     TOTAL               2745012

  @FORMT2-I, Second-order MP correlation energies:
            ------------------------------------------------
            E(SCF)                  =   -167.662968740927 a.u.
            E2(AA)                  =     -0.075644199462 a.u.
            E2(AB)                  =     -0.440195510899 a.u.
            E2(TOT)                 =     -0.591483909824 a.u.
            Total MP2 energy        =   -168.254452650751 a.u.
            ------------------------------------------------
   Largest T2 amplitudes for spin case AB:
       _       _                 _       _                 _       _
   i   j   a   b             i   j   a   b             i   j   a   b
-----------------------------------------------------------------------------
[  9   9  12  12]-0.09064 [ 11  11  73  73]-0.05528 [ 11   9  73  12] 0.05238
[  9  11  12  73] 0.05238 [ 10  10  73  73]-0.04347 [  9   9  14  12] 0.03746
[  9   9  12  14] 0.03746 [  9   7  12  12]-0.03347 [  7   9  12  12]-0.03347
[  7   7  12  12]-0.02787 [  9  11  14  73]-0.02435 [ 11   9  73  14]-0.02435
[ 11   9  76  12] 0.02311 [  9  11  12  76] 0.02311 [  6   6  73  73]-0.02303
-----------------------------------------------------------------------------
   Norm of T2AB vector (   543869 symmetry allowed elements):  0.3730151738.
-----------------------------------------------------------------------------
 @CHECKOUT-I, Total execution time (CPU/WALL):        0.22/       0.74 seconds.
--executable xintprc finished with status     0 in        0.93 seconds (walltime).
  calling xecc 
 --invoking executable--
/home/orgChemistry/bin/cfour_v21/bin/xecc
 @GETMEM-I,  Allocated    4768 MB of main memory.
 CCSD(T) energy will be calculated.
 AO based algorithm is used. 
   Frozen core orbitals in analytic derivative calculation
 Largest T2 amplitudes for spin case AB:
        _       _                 _       _                 _       _
    i   j   a   b             i   j   a   b             i   j   a   b
 -----------------------------------------------------------------------------
 [  9   9  12  12]-0.09064 [ 11  11  73  73]-0.05528 [ 11   9  73  12] 0.05238
 [  9  11  12  73] 0.05238 [ 10  10  73  73]-0.04347 [  9   9  14  12] 0.03746
 [  9   9  12  14] 0.03746 [  9   7  12  12]-0.03347 [  7   9  12  12]-0.03347
 [  7   7  12  12]-0.02787 [  9  11  14  73]-0.02435 [ 11   9  73  14]-0.02435
 [ 11   9  76  12] 0.02311 [  9  11  12  76] 0.02311 [  6   6  73  73]-0.02303
 -----------------------------------------------------------------------------
 Norm of T2AB vector (   543869 symmetry allowed elements):  0.3730151738.
 -----------------------------------------------------------------------------
 The total correlation energy is -0.591483909824 a.u.
 Resorts of amplitudes and integrals (CPU/WALL):       0.01/       0.03 seconds.
 Starting iterative solution of the CC equations.
 The DIIS procedure is used to accelerate convergence.
 5 expansion vectors are used in the DIIS extrapolation.
 Convergence criterium is 10**(-10).
 Maximum number of iterations is 100.
 >>>>>>>>>>>>>>>>>>>>>>>>>>>>>>>>>>>>>>>>>>>>>>>>>>>>>>>>>>>>>>>>>>>>>>>>>>>>>>>
 Iteration Nr.   1 started:
 Generation of Intermediates required (CPU/WALL):      0.17/       0.32 seconds.
 Transformation of t(ab,ij) amplitudes required    0.0 seconds.
 Contraction of t(mu nu,ij) with AO integrals required    0.9 seconds.
 Backtransformation of t(mu nu,ij) increments required    0.0 seconds.
 Construction of Hbar required (CPU/WALL):             1.02/       1.23 seconds.
   Frozen core orbitals in analytic derivative calculation
 Amplitude changes are:
 -------------------------------------------------------------------
              Spin      RMS          Max.      Max. change for
  Amplitude   Case     Change       Change       i    j    a    b
 -------------------------------------------------------------------
     T1        AA    0.0001782069 0.0740014345    9        12
     T2        AB    0.0000001336 0.0171051803    9    9   12   12
 -------------------------------------------------------------------
 The total correlation energy is -0.559001767140 a.u.
 Convergence information after     1 iterations: 
 Largest element of residual vector :  0.74001435E-01.
 Largest element of DIIS residual   :  0.74001435E-01.
 Iteration Nr.   1 required (CPU/WALL):                1.24/       1.66 seconds.
 >>>>>>>>>>>>>>>>>>>>>>>>>>>>>>>>>>>>>>>>>>>>>>>>>>>>>>>>>>>>>>>>>>>>>>>>>>>>>>>
 Iteration Nr.   2 started:
 Generation of Intermediates required (CPU/WALL):      0.17/       0.31 seconds.
 Transformation of t(ab,ij) amplitudes required    0.0 seconds.
 Contraction of t(mu nu,ij) with AO integrals required    0.9 seconds.
 Backtransformation of t(mu nu,ij) increments required    0.0 seconds.
 Construction of Hbar required (CPU/WALL):             1.02/       1.24 seconds.
   Frozen core orbitals in analytic derivative calculation
 Amplitude changes are:
 -------------------------------------------------------------------
              Spin      RMS          Max.      Max. change for
  Amplitude   Case     Change       Change       i    j    a    b
 -------------------------------------------------------------------
     T1        AA    0.0000611963 0.0232069690   11        73
     T2        AB    0.0000001209-0.0328065124    9    9   12   12
 -------------------------------------------------------------------
 The total correlation energy is -0.597391397507 a.u.
 Convergence information after     2 iterations: 
 Largest element of residual vector : -0.32806512E-01.
 Largest element of DIIS residual   : -0.16392197E-01.
 Iteration Nr.   2 required (CPU/WALL):                1.25/       1.70 seconds.
 >>>>>>>>>>>>>>>>>>>>>>>>>>>>>>>>>>>>>>>>>>>>>>>>>>>>>>>>>>>>>>>>>>>>>>>>>>>>>>>
 Iteration Nr.   3 started:
 Generation of Intermediates required (CPU/WALL):      0.17/       0.31 seconds.
 Transformation of t(ab,ij) amplitudes required    0.0 seconds.
 Contraction of t(mu nu,ij) with AO integrals required    0.9 seconds.
 Backtransformation of t(mu nu,ij) increments required    0.0 seconds.
 Construction of Hbar required (CPU/WALL):             1.02/       1.24 seconds.
   Frozen core orbitals in analytic derivative calculation
 Amplitude changes are:
 -------------------------------------------------------------------
              Spin      RMS          Max.      Max. change for
  Amplitude   Case     Change       Change       i    j    a    b
 -------------------------------------------------------------------
     T1        AA    0.0000429278 0.0218333758    9        12
     T2        AB    0.0000000286-0.0062524550    9    9   12   12
 -------------------------------------------------------------------
 The total correlation energy is -0.589263775253 a.u.
 Convergence information after     3 iterations: 
 Largest element of residual vector :  0.21833376E-01.
 Largest element of DIIS residual   :  0.15238094E-01.
 Iteration Nr.   3 required (CPU/WALL):                1.27/       1.73 seconds.
 >>>>>>>>>>>>>>>>>>>>>>>>>>>>>>>>>>>>>>>>>>>>>>>>>>>>>>>>>>>>>>>>>>>>>>>>>>>>>>>
 Iteration Nr.   4 started:
 Generation of Intermediates required (CPU/WALL):      0.17/       0.33 seconds.
 Transformation of t(ab,ij) amplitudes required    0.0 seconds.
 Contraction of t(mu nu,ij) with AO integrals required    0.9 seconds.
 Backtransformation of t(mu nu,ij) increments required    0.0 seconds.
 Construction of Hbar required (CPU/WALL):             1.02/       1.24 seconds.
   Frozen core orbitals in analytic derivative calculation
 Amplitude changes are:
 -------------------------------------------------------------------
              Spin      RMS          Max.      Max. change for
  Amplitude   Case     Change       Change       i    j    a    b
 -------------------------------------------------------------------
     T1        AA    0.0000200661 0.0073393370   11        73
     T2        AB    0.0000000140-0.0040041318    9    9   12   12
 -------------------------------------------------------------------
 The total correlation energy is -0.592994504763 a.u.
 Convergence information after     4 iterations: 
 Largest element of residual vector :  0.73393370E-02.
 Largest element of DIIS residual   :  0.58593970E-02.
 Iteration Nr.   4 required (CPU/WALL):                1.28/       1.77 seconds.
 >>>>>>>>>>>>>>>>>>>>>>>>>>>>>>>>>>>>>>>>>>>>>>>>>>>>>>>>>>>>>>>>>>>>>>>>>>>>>>>
 Iteration Nr.   5 started:
 Generation of Intermediates required (CPU/WALL):      0.17/       0.31 seconds.
 Transformation of t(ab,ij) amplitudes required    0.0 seconds.
 Contraction of t(mu nu,ij) with AO integrals required    0.9 seconds.
 Backtransformation of t(mu nu,ij) increments required    0.0 seconds.
 Construction of Hbar required (CPU/WALL):             1.02/       1.24 seconds.
   Frozen core orbitals in analytic derivative calculation
 Amplitude changes are:
 -------------------------------------------------------------------
              Spin      RMS          Max.      Max. change for
  Amplitude   Case     Change       Change       i    j    a    b
 -------------------------------------------------------------------
     T1        AA    0.0000096327 0.0047943787    9        12
     T2        AB    0.0000000085-0.0022135741    9    9   12   12
 -------------------------------------------------------------------
 The total correlation energy is -0.595375035757 a.u.
 Convergence information after     5 iterations: 
 Largest element of residual vector :  0.47943787E-02.
 Largest element of DIIS residual   :  0.20514578E-02.
 Iteration Nr.   5 required (CPU/WALL):                1.30/       1.80 seconds.
 Largest T1 amplitudes for spin case AA:
    i       a                 i       a                 i       a    
 -----------------------------------------------------------------------------
 [  9      12    ] 0.11545 [ 10      73    ] 0.07453 [ 11      73    ] 0.02915
 [  9      14    ]-0.02724 [ 10      74    ] 0.02221 [  9      28    ]-0.01886
 [  6      12    ]-0.01676 [  5      12    ] 0.01595 [  9      22    ]-0.01541
 [  9      20    ] 0.01405 [  9      16    ] 0.01271 [ 11      74    ] 0.01192
 [  9      21    ]-0.01094 [ 10      75    ] 0.00873 [  7      12    ] 0.00827
 -----------------------------------------------------------------------------
 Norm of T1AA vector (      613 symmetry allowed elements):  0.1570429104.
 -----------------------------------------------------------------------------
 Largest T2 amplitudes for spin case AB:
        _       _                 _       _                 _       _
    i   j   a   b             i   j   a   b             i   j   a   b
 -----------------------------------------------------------------------------
 [  9   9  12  12]-0.12122 [ 11  11  73  73]-0.06050 [ 11   9  73  12] 0.05695
 [  9  11  12  73] 0.05695 [ 10  10  73  73]-0.04868 [  9   9  14  12] 0.04480
 [  9   9  12  14] 0.04480 [ 11  11  12  12]-0.04058 [  9   7  12  12]-0.03740
 [  7   9  12  12]-0.03740 [  7   7  12  12]-0.03035 [  8   8  12  12]-0.02870
 [  9   9  23  12]-0.02640 [  9   9  12  23]-0.02640 [  6   6  73  73]-0.02582
 -----------------------------------------------------------------------------
 Norm of T2AB vector (   543869 symmetry allowed elements):  0.4129606332.
 -----------------------------------------------------------------------------
 >>>>>>>>>>>>>>>>>>>>>>>>>>>>>>>>>>>>>>>>>>>>>>>>>>>>>>>>>>>>>>>>>>>>>>>>>>>>>>>
 Iteration Nr.   6 started:
 Generation of Intermediates required (CPU/WALL):      0.17/       0.31 seconds.
 Transformation of t(ab,ij) amplitudes required    0.0 seconds.
 Contraction of t(mu nu,ij) with AO integrals required    0.9 seconds.
 Backtransformation of t(mu nu,ij) increments required    0.0 seconds.
 Construction of Hbar required (CPU/WALL):             1.02/       1.25 seconds.
   Frozen core orbitals in analytic derivative calculation
 Amplitude changes are:
 -------------------------------------------------------------------
              Spin      RMS          Max.      Max. change for
  Amplitude   Case     Change       Change       i    j    a    b
 -------------------------------------------------------------------
     T1        AA    0.0000047980 0.0020477662   11        73
     T2        AB    0.0000000028-0.0003936698    9    9   12   12
 -------------------------------------------------------------------
 The total correlation energy is -0.595864582664 a.u.
 Convergence information after     6 iterations: 
 Largest element of residual vector :  0.20477662E-02.
 Largest element of DIIS residual   :  0.12746789E-02.
 Iteration Nr.   6 required (CPU/WALL):                1.30/       1.80 seconds.
 >>>>>>>>>>>>>>>>>>>>>>>>>>>>>>>>>>>>>>>>>>>>>>>>>>>>>>>>>>>>>>>>>>>>>>>>>>>>>>>
 Iteration Nr.   7 started:
 Generation of Intermediates required (CPU/WALL):      0.17/       0.32 seconds.
 Transformation of t(ab,ij) amplitudes required    0.0 seconds.
 Contraction of t(mu nu,ij) with AO integrals required    0.9 seconds.
 Backtransformation of t(mu nu,ij) increments required    0.0 seconds.
 Construction of Hbar required (CPU/WALL):             1.02/       1.23 seconds.
   Frozen core orbitals in analytic derivative calculation
 Amplitude changes are:
 -------------------------------------------------------------------
              Spin      RMS          Max.      Max. change for
  Amplitude   Case     Change       Change       i    j    a    b
 -------------------------------------------------------------------
     T1        AA    0.0000020053 0.0007983836   11        73
     T2        AB    0.0000000017 0.0002428695   11   11   12   12
 -------------------------------------------------------------------
 The total correlation energy is -0.596008926418 a.u.
 Convergence information after     7 iterations: 
 Largest element of residual vector :  0.79838360E-03.
 Largest element of DIIS residual   : -0.37561796E-03.
 Iteration Nr.   7 required (CPU/WALL):                1.30/       1.82 seconds.
 >>>>>>>>>>>>>>>>>>>>>>>>>>>>>>>>>>>>>>>>>>>>>>>>>>>>>>>>>>>>>>>>>>>>>>>>>>>>>>>
 Iteration Nr.   8 started:
 Generation of Intermediates required (CPU/WALL):      0.17/       0.31 seconds.
 Transformation of t(ab,ij) amplitudes required    0.0 seconds.
 Contraction of t(mu nu,ij) with AO integrals required    0.9 seconds.
 Backtransformation of t(mu nu,ij) increments required    0.0 seconds.
 Construction of Hbar required (CPU/WALL):             1.02/       1.22 seconds.
   Frozen core orbitals in analytic derivative calculation
 Amplitude changes are:
 -------------------------------------------------------------------
              Spin      RMS          Max.      Max. change for
  Amplitude   Case     Change       Change       i    j    a    b
 -------------------------------------------------------------------
     T1        AA    0.0000010864 0.0005227683   11        73
     T2        AB    0.0000000007 0.0001451496   11   11   12   12
 -------------------------------------------------------------------
 The total correlation energy is -0.596069478359 a.u.
 Convergence information after     8 iterations: 
 Largest element of residual vector :  0.52276825E-03.
 Largest element of DIIS residual   : -0.16469420E-03.
 Iteration Nr.   8 required (CPU/WALL):                1.30/       1.75 seconds.
 >>>>>>>>>>>>>>>>>>>>>>>>>>>>>>>>>>>>>>>>>>>>>>>>>>>>>>>>>>>>>>>>>>>>>>>>>>>>>>>
 Iteration Nr.   9 started:
 Generation of Intermediates required (CPU/WALL):      0.17/       0.31 seconds.
 Transformation of t(ab,ij) amplitudes required    0.0 seconds.
 Contraction of t(mu nu,ij) with AO integrals required    0.9 seconds.
 Backtransformation of t(mu nu,ij) increments required    0.0 seconds.
 Construction of Hbar required (CPU/WALL):             1.02/       1.23 seconds.
   Frozen core orbitals in analytic derivative calculation
 Amplitude changes are:
 -------------------------------------------------------------------
              Spin      RMS          Max.      Max. change for
  Amplitude   Case     Change       Change       i    j    a    b
 -------------------------------------------------------------------
     T1        AA    0.0000002664 0.0001165715   11        73
     T2        AB    0.0000000004 0.0000891895   11   11   12   12
 -------------------------------------------------------------------
 The total correlation energy is -0.596073948315 a.u.
 Convergence information after     9 iterations: 
 Largest element of residual vector :  0.11657147E-03.
 Largest element of DIIS residual   :  0.73909870E-04.
 Iteration Nr.   9 required (CPU/WALL):                1.30/       1.77 seconds.
 >>>>>>>>>>>>>>>>>>>>>>>>>>>>>>>>>>>>>>>>>>>>>>>>>>>>>>>>>>>>>>>>>>>>>>>>>>>>>>>
 Iteration Nr.  10 started:
 Generation of Intermediates required (CPU/WALL):      0.17/       0.31 seconds.
 Transformation of t(ab,ij) amplitudes required    0.0 seconds.
 Contraction of t(mu nu,ij) with AO integrals required    0.9 seconds.
 Backtransformation of t(mu nu,ij) increments required    0.0 seconds.
 Construction of Hbar required (CPU/WALL):             1.02/       1.24 seconds.
   Frozen core orbitals in analytic derivative calculation
 Amplitude changes are:
 -------------------------------------------------------------------
              Spin      RMS          Max.      Max. change for
  Amplitude   Case     Change       Change       i    j    a    b
 -------------------------------------------------------------------
     T1        AA    0.0000001897 0.0001007792   11        73
     T2        AB    0.0000000002 0.0000428229   11   11   12   12
 -------------------------------------------------------------------
 The total correlation energy is -0.596106506233 a.u.
 Convergence information after    10 iterations: 
 Largest element of residual vector :  0.10077916E-03.
 Largest element of DIIS residual   :  0.40965441E-04.
 Iteration Nr.  10 required (CPU/WALL):                1.30/       1.77 seconds.
 Largest T1 amplitudes for spin case AA:
    i       a                 i       a                 i       a    
 -----------------------------------------------------------------------------
 [  9      12    ] 0.12278 [ 10      73    ] 0.07231 [ 11      73    ] 0.03682
 [  9      14    ]-0.02806 [ 10      74    ] 0.02165 [  9      28    ]-0.01878
 [  6      12    ]-0.01707 [  5      12    ] 0.01575 [  9      22    ]-0.01571
 [  9      20    ] 0.01449 [ 11      74    ] 0.01357 [  9      16    ] 0.01295
 [  9      21    ]-0.01116 [ 10      75    ] 0.00848 [  9      19    ]-0.00800
 -----------------------------------------------------------------------------
 Norm of T1AA vector (      613 symmetry allowed elements):  0.1632413705.
 -----------------------------------------------------------------------------
 Largest T2 amplitudes for spin case AB:
        _       _                 _       _                 _       _
    i   j   a   b             i   j   a   b             i   j   a   b
 -----------------------------------------------------------------------------
 [  9   9  12  12]-0.12383 [ 11  11  73  73]-0.06059 [ 11   9  73  12] 0.05686
 [  9  11  12  73] 0.05686 [ 10  10  73  73]-0.04836 [  9   9  14  12] 0.04545
 [  9   9  12  14] 0.04545 [ 11  11  12  12]-0.04005 [  9   7  12  12]-0.03756
 [  7   9  12  12]-0.03756 [  7   7  12  12]-0.02997 [  8   8  12  12]-0.02810
 [ 11  10  73  73]-0.02690 [ 10  11  73  73]-0.02690 [  9   9  23  12]-0.02653
 -----------------------------------------------------------------------------
 Norm of T2AB vector (   543869 symmetry allowed elements):  0.4138066083.
 -----------------------------------------------------------------------------
 >>>>>>>>>>>>>>>>>>>>>>>>>>>>>>>>>>>>>>>>>>>>>>>>>>>>>>>>>>>>>>>>>>>>>>>>>>>>>>>
 Iteration Nr.  11 started:
 Generation of Intermediates required (CPU/WALL):      0.17/       0.31 seconds.
 Transformation of t(ab,ij) amplitudes required    0.0 seconds.
 Contraction of t(mu nu,ij) with AO integrals required    0.9 seconds.
 Backtransformation of t(mu nu,ij) increments required    0.0 seconds.
 Construction of Hbar required (CPU/WALL):             1.02/       1.22 seconds.
   Frozen core orbitals in analytic derivative calculation
 Amplitude changes are:
 -------------------------------------------------------------------
              Spin      RMS          Max.      Max. change for
  Amplitude   Case     Change       Change       i    j    a    b
 -------------------------------------------------------------------
     T1        AA    0.0000000877 0.0000268281   11        73
     T2        AB    0.0000000001 0.0000216995   11   11   12   12
 -------------------------------------------------------------------
 The total correlation energy is -0.596102050570 a.u.
 Convergence information after    11 iterations: 
 Largest element of residual vector :  0.26828115E-04.
 Largest element of DIIS residual   :  0.17570752E-04.
 Iteration Nr.  11 required (CPU/WALL):                1.30/       1.76 seconds.
 >>>>>>>>>>>>>>>>>>>>>>>>>>>>>>>>>>>>>>>>>>>>>>>>>>>>>>>>>>>>>>>>>>>>>>>>>>>>>>>
 Iteration Nr.  12 started:
 Generation of Intermediates required (CPU/WALL):      0.17/       0.31 seconds.
 Transformation of t(ab,ij) amplitudes required    0.0 seconds.
 Contraction of t(mu nu,ij) with AO integrals required    0.9 seconds.
 Backtransformation of t(mu nu,ij) increments required    0.0 seconds.
 Construction of Hbar required (CPU/WALL):             1.02/       1.26 seconds.
   Frozen core orbitals in analytic derivative calculation
 Amplitude changes are:
 -------------------------------------------------------------------
              Spin      RMS          Max.      Max. change for
  Amplitude   Case     Change       Change       i    j    a    b
 -------------------------------------------------------------------
     T1        AA    0.0000000482 0.0000252910   11        73
[...]
 H #4 x    0.212799    0.004672   -0.008867    0.024985    0.000578   -0.021914
 H #4 y    0.004672    0.017047    0.024985    0.035984   -0.021914    0.020707

           H #4 x      H #4 y

 H #4 x   -0.204510
 H #4 y   -0.007742   -0.073738


           Symmetry 2

           C #1 z      N #2 z      O #3 z      H #4 z

 C #1 z   -1.377991
 N #2 z    0.626361   -0.612323
 O #3 z    0.541968    0.005708   -0.534749
 H #4 z    0.209662   -0.019746   -0.012927   -0.176989




           C #1 x      C #1 y      C #1 z      N #2 x      N #2 y      N #2 z

 C #1 x   -0.824153
 C #1 y   -0.047017   -0.594688
 C #1 z    0.000000    0.000000   -1.377991

 N #2 x    0.368502   -0.188383    0.000000   -0.380015
 N #2 y   -0.188383    0.289574    0.000000    0.174843   -0.360144
 N #2 z    0.000000    0.000000    0.626361    0.000000    0.000000   -0.612323

 O #3 x    0.242852    0.230729    0.000000    0.020381   -0.011445    0.000000
 O #3 y    0.230729    0.288067    0.000000   -0.011445    0.034586    0.000000
 O #3 z    0.000000    0.000000    0.541968    0.000000    0.000000    0.005708

 H #4 x    0.212799    0.004672    0.000000   -0.008867    0.024985    0.000000
 H #4 y    0.004672    0.017047    0.000000    0.024985    0.035984    0.000000
 H #4 z    0.000000    0.000000    0.209662    0.000000    0.000000   -0.019746


           O #3 x      O #3 y      O #3 z      H #4 x      H #4 y      H #4 z

 O #3 x   -0.263811
 O #3 y   -0.197370   -0.343360
 O #3 z    0.000000    0.000000   -0.534749

 H #4 x    0.000578   -0.021914    0.000000   -0.204510
 H #4 y   -0.021914    0.020707    0.000000   -0.007742   -0.073738
 H #4 z    0.000000    0.000000   -0.012927    0.000000    0.000000   -0.176989




                Electronic contributions to dipole moment
                -----------------------------------------

                               au             Debye

                    x      0.01868128      0.04748308
                    y     -0.41686020     -1.05955313

  Conversion factor used: 1 a.u. =   2.54174691 Debye 



   Electronic contributions to static part of dipole moment derivatives
   --------------------------------------------------------------------


                     Total dipole moment derivatives
                     -------------------------------


           Symmetry 1
                              Ex             Ey

               C #1 x    -6.59235171    -0.00105258
               C #1 y    -0.17663527    -6.52042825
               N #2 x    -6.68482546     0.10274616
               N #2 y     0.46910715    -7.08280448
               O #3 x    -7.88997739    -0.09435724
               O #3 y    -0.25915801    -8.26850457
               H #4 x    -0.83284545    -0.00733633
               H #4 y    -0.03331387    -0.12826270

           Symmetry 2
                              Ez

               C #1 z    -5.68708769
               N #2 z    -7.16180162
               O #3 z    -8.24006981
               H #4 z    -0.91104088



                       Ex          Ey          Ez

      C #1    x   -6.592352   -0.001053    0.000000
      C #1    y   -0.176635   -6.520428    0.000000
      C #1    z    0.000000    0.000000   -5.687088

      N #2    x   -6.684825    0.102746    0.000000
      N #2    y    0.469107   -7.082804    0.000000
      N #2    z    0.000000    0.000000   -7.161802

      O #3    x   -7.889977   -0.094357    0.000000
      O #3    y   -0.259158   -8.268505    0.000000
      O #3    z    0.000000    0.000000   -8.240070

      H #4    x   -0.832845   -0.007336    0.000000
      H #4    y   -0.033314   -0.128263    0.000000
      H #4    z    0.000000    0.000000   -0.911041

 Evaluation of 1e integral derivatives required    0.14 seconds.
 Evaluation of 2el integral derivatives

                      Two-electron integral gradient
                      ------------------------------

                         C #1 x     0.3984564167
                         C #1 y   -11.7807276825
                         N #2 x    11.0467232906
                         N #2 y     8.5255261186
                         O #3 x   -11.5636229230
                         O #3 y     6.3688328560
                         H #4 x     0.1184432157
                         H #4 y    -3.1136312921


 C #1       0.3984564167          -11.7807276825            0.0000000000
 N #2      11.0467232906            8.5255261186            0.0000000000
 O #3     -11.5636229230            6.3688328560            0.0000000000
 H #4       0.1184432157           -3.1136312921            0.0000000000


 Evaluation of 2e integral derivatives required   18.83 seconds.

                            Molecular gradient
                            ------------------

                         C #1 x     0.0000000322
                         C #1 y     0.0000002852
                         N #2 x    -0.0000002590
                         N #2 y    -0.0000002665
                         O #3 x     0.0000002287
                         O #3 y    -0.0000001751
                         H #4 x    -0.0000000019
                         H #4 y     0.0000001564


 C #1       0.0000000322            0.0000002852            0.0000000000
 N #2      -0.0000002590           -0.0000002665            0.0000000000
 O #3       0.0000002287           -0.0000001751            0.0000000000
 H #4      -0.0000000019            0.0000001564            0.0000000000


  Molecular gradient norm 0.573E-06

                            Molecular hessian
                            -----------------


           Symmetry 1

           C #1 x      C #1 y      N #2 x      N #2 y      O #3 x      O #3 y

 C #1 x    0.536408
 C #1 y    0.141523    1.007368
 N #2 x   -0.228853   -0.347640    0.311786
 N #2 y   -0.267630   -0.430249    0.300260    0.392655
 O #3 x   -0.240872    0.217401   -0.093287   -0.019463    0.325249
 O #3 y    0.133258   -0.227256    0.044005    0.042613   -0.200347    0.193440
 H #4 x   -0.066683   -0.011284    0.010354   -0.013167    0.008911    0.023084
 H #4 y   -0.007151   -0.349863    0.003375   -0.005020    0.002409   -0.008798

           H #4 x      H #4 y

 H #4 x    0.047418
 H #4 y    0.001367    0.363680


           Symmetry 2

           C #1 z      N #2 z      O #3 z      H #4 z

 C #1 z    0.104839
 N #2 z   -0.030961    0.009143
 O #3 z   -0.025922    0.007655    0.006409
 H #4 z   -0.047957    0.014162    0.011857    0.021937




           C #1 x      C #1 y      C #1 z      N #2 x      N #2 y      N #2 z

 C #1 x    0.536408
 C #1 y    0.141523    1.007368
 C #1 z    0.000000    0.000000    0.104839

 N #2 x   -0.228853   -0.347640    0.000000    0.311786
 N #2 y   -0.267630   -0.430249    0.000000    0.300260    0.392655
 N #2 z    0.000000    0.000000   -0.030961    0.000000    0.000000    0.009143

 O #3 x   -0.240872    0.217401    0.000000   -0.093287   -0.019463    0.000000
 O #3 y    0.133258   -0.227256    0.000000    0.044005    0.042613    0.000000
 O #3 z    0.000000    0.000000   -0.025922    0.000000    0.000000    0.007655

 H #4 x   -0.066683   -0.011284    0.000000    0.010354   -0.013167    0.000000
 H #4 y   -0.007151   -0.349863    0.000000    0.003375   -0.005020    0.000000
 H #4 z    0.000000    0.000000   -0.047957    0.000000    0.000000    0.014162


           O #3 x      O #3 y      O #3 z      H #4 x      H #4 y      H #4 z

 O #3 x    0.325249
 O #3 y   -0.200347    0.193440
 O #3 z    0.000000    0.000000    0.006409

 H #4 x    0.008911    0.023084    0.000000    0.047418
 H #4 y    0.002409   -0.008798    0.000000    0.001367    0.363680
 H #4 z    0.000000    0.000000    0.011857    0.000000    0.000000    0.021937




                           Total dipole moment
                           -------------------

                               au             Debye

                    x     -0.06362804     -0.16172638
                    y      1.16510024      2.96138994

  Conversion factor used: 1 a.u. =   2.54174691 Debye 



                     Total dipole moment derivatives
                     -------------------------------


           Symmetry 1
                              Ex             Ey

               C #1 x     0.58106399    -0.09753863
               C #1 y    -0.14332098     0.37301947
               N #2 x    -0.27639148     0.11381007
               N #2 y    -0.02936572    -0.15501986
               O #3 x    -0.44307761    -0.03069856
               O #3 y     0.15628693    -0.23166873
               H #4 x     0.13840511     0.01442712
               H #4 y     0.01639977     0.01366912

           Symmetry 2
                              Ez

               C #1 z     0.29747839
               N #2 z    -0.23750396
               O #3 z    -0.23399528
               H #4 z     0.17402085



                       Ex          Ey          Ez

      C #1    x    0.581064   -0.097539    0.000000
      C #1    y   -0.143321    0.373019    0.000000
      C #1    z    0.000000    0.000000    0.297478

      N #2    x   -0.276391    0.113810    0.000000
      N #2    y   -0.029366   -0.155020    0.000000
      N #2    z    0.000000    0.000000   -0.237504

      O #3    x   -0.443078   -0.030699    0.000000
      O #3    y    0.156287   -0.231669    0.000000
      O #3    z    0.000000    0.000000   -0.233995

      H #4    x    0.138405    0.014427    0.000000
      H #4    y    0.016400    0.013669    0.000000
      H #4    z    0.000000    0.000000    0.174021

 @CHECKOUT-I, Total execution time (CPU/WALL):       18.97/      19.38 seconds.
--executable xvdint finished with status     0 in       19.39 seconds (walltime).
 --invoking executable--
/home/orgChemistry/bin/cfour_v21/bin/xjoda
  igrd and ihes are                      0                     0
  gradient from JOBARC 
   0.000000032155717   0.000000285248736   0.000000000000000
  -0.000000259030765  -0.000000266546319   0.000000000000000
   0.000000228749481  -0.000000175135894   0.000000000000000
  -0.000000001874416   0.000000156433392   0.000000000000000
 
  masses used (in AMU) in vibrational analysis: 
  12.000000000     14.003074002     15.994914630
   1.007825035
                     Normal Coordinate Analysis
  ----------------------------------------------------------------
    Irreducible         Harmonic       Infrared        Type 
   Representation       Frequency      Intensity 
  ----------------------------------------------------------------
                       (cm-1)         (km/mol)
  ----------------------------------------------------------------
      ----                 0.2606i        0.0010      TRANSLATION
      ----                 0.1239i        0.0043      TRANSLATION
      ----                 0.2473         0.0005      TRANSLATION
      ----                 0.5387         0.8246       ROTATION  
      ----                 0.6653        10.6515       ROTATION  
      ----                 1.0290        36.1954       ROTATION  
        A'               466.3173         8.5993       VIBRATION 
       A''               913.1678         6.7253       VIBRATION 
        A'              1082.4796        43.1762       VIBRATION 
        A'              1337.8318        15.2914       VIBRATION 
        A'              1663.5995         6.2811       VIBRATION 
        A'              3227.6782         1.0777       VIBRATION 
  ----------------------------------------------------------------
 
 
                                   Normal Coordinates 

                A'                       A''                        A'
               466.32                    913.17                   1082.48 
             VIBRATION                 VIBRATION                 VIBRATION 
 C      0.082-0.3949 -0.0000    0.0000  0.0000  0.5262    0.2350 -0.1076 -0.0000
 N     -0.667 0.1429  0.0000    0.0000  0.0000 -0.1438   -0.0893 -0.2743  0.0000
 O      0.551 0.2358 -0.0000   -0.0000  0.0000 -0.1127   -0.3175  0.3584 -0.0000
 H      0.005-0.1094 -0.0000    0.0000 -0.0000 -0.8305    0.7871 -0.0339 -0.0000

                A'                        A'                        A'
              1337.83                   1663.60                   3227.68 
             VIBRATION                 VIBRATION                 VIBRATION 
 C      0.608-0.3338 -0.0000    0.4029  0.5829 -0.0000    0.0188  0.3146  0.0000
 N      0.033 0.0610 -0.0000   -0.4130 -0.4785 -0.0000   -0.0278 -0.0278 -0.0000
 O     -0.432 0.2584 -0.0000    0.0778 -0.1151  0.0000    0.0116 -0.0085 -0.0000
 H     -0.498-0.1050  0.0000   -0.1604  0.2308 -0.0000   -0.0077 -0.9481 -0.0000
            Gradient vector in normal coordinate representation
         ----------------------------------------------------------
   i    W(I)     dE/dQ(i)     dE/dq      dE/dq     [dE/dQ(i)]/w(i)
                              (cm-1)      (eV)        (relative)
         ----------------------------------------------------------
    7   466.32  0.0000000084      0.00094      0.00000   0.0000000000
    8   913.17 -0.0000000000     -0.00000     -0.00000   0.0000000000
    9  1082.48 -0.0000000216     -0.00158     -0.00000   0.0000000000
   10  1337.83 -0.0000000800     -0.00527     -0.00000   0.0000000000
   11  1663.60  0.0000001602      0.00946      0.00000   0.0000000000
   12  3227.68 -0.0000001167     -0.00495     -0.00000   0.0000000000
         ----------------------------------------------------------
 
                      Normal modes in internal coordinates 
---------------------------------------------------------------------------
              0.261         0.124         0.247         0.539         0.665
---------------------------------------------------------------------------
R12       -0.000000      0.000000      0.000000      0.000000      0.000000
R13        0.000000     -0.000000     -0.000000      0.000000      0.000000
A213       0.000000      0.000000      0.000000     -0.000000      0.000000
R14       -0.000000      0.000000      0.000000      0.000000      0.000000
A314       0.000000     -0.000000     -0.000000      0.000000      0.000000
D2314     -0.000000      0.000000     -0.000000      0.000000     -0.000000
---------------------------------------------------------------------------
              1.029       466.317       913.168      1082.480      1337.832
---------------------------------------------------------------------------
R12       -0.000000      0.087616     -0.000000      0.225933      0.050743
R13       -0.000000     -0.136078     -0.000000     -0.467042     -0.663067
A213       0.000000      0.918548      0.000000      0.036756      0.118720
R14       -0.000000      0.024163      0.000000     -0.003411     -0.019572
A314      -0.000000     -0.359849      0.000000     -0.854086      0.737082
D2314      0.000001     -0.000000      1.000000      0.000000     -0.000000
---------------------------------------------------------------------------
           1663.600      3227.678
---------------------------------------------------------------------------
R12        0.825470      0.079216
R13        0.125479      0.056805
A213      -0.211626     -0.049768
R14        0.135660     -0.993443
A314       0.489557      0.033044
D2314     -0.000000      0.000000
---------------------------------------------------------------------------
 
  ----------------------------------------------------------------
                    Dipole Moment Function
                   (Normal Coordinate Basis)
  ----------------------------------------------------------------
    Mode     Symmetry    d(Mu(x))/dQ   d(Mu(y))/dQ   d(Mu(z))/dQ
  ----------------------------------------------------------------
     Q7          A'        0.025550     -0.090378     -0.000000
     Q8         A''        0.000000      0.000000     -0.083058
     Q9          A'        0.209760     -0.017033     -0.000000
     Q10         A'        0.100428     -0.074832      0.000000
     Q11         A'        0.046266      0.065593     -0.000000
     Q12         A'       -0.025750      0.021034      0.000000
  ----------------------------------------------------------------
---------------------------------------------------------------------------
------------------------------------------------------------
        Parameter                (MHz)                 (CM-1)
------------------------------------------------------------
 
           R6                -.347133E-02           -.115791E-06
           R5                0.286393E-01           0.955305E-06
           SI                            0.113029E+02
 
  A-reduced centrifugal distortion parameters (Ir representation) 
 
           DJ                0.676814E-01           0.225761E-05
           DK                0.961967E+00           0.320878E-04
           DJK               -.314591E+00           -.104936E-04
           DELJ              0.746240E-01           0.248919E-05
           DELK              0.996680E+00           0.332457E-04
           DELJK             -.356247E+00           -.118831E-04
           delJ              0.279003E-01           0.930655E-06
           delK              0.996662E-01           0.332451E-05
 
  S-reduced centrifugal distortion parameters (Ir representation) 
 
           DJ                0.702152E-01           0.234213E-05
           DK                0.974636E+00           0.325104E-04
           DJK               -.329793E+00           -.110007E-04
           D1                -.279003E-01           -.930655E-06
           D2                -.220443E-02           -.735319E-07
------------------------------------------------------------
   Rotationally projected vibrational frequencies 
            1               0.0000i
            2               0.0000i
            3               0.0000i
            4               0.0000 
            5               0.0000 
            6               0.0000 
            7             466.3173 
            8             913.1678 
            9            1082.4796 
           10            1337.8318 
           11            1663.5995 
           12            3227.6782 
  Zero-point energy:   12.4245 kcal/mol =   51.9842 kJ/mol =    4345.537 cm-1 
 
  Finite temperature thermodynamic corrections:
=======================================================
Temperature     Entropy       Enthalpy     Gibbs Energy
    (K)        (J/(mol K))    (kJ/mol)      (kJ/mol) 
=======================================================
    298.15      246.0794       10.8096      -62.5590
    100.00      205.7401        3.3326      -17.2414
    200.00      230.1443        6.8753      -39.1535
    300.00      246.3443       10.8888      -63.0145
    400.00      259.4598       15.4614      -88.3225
    500.00      270.8469       20.5739     -114.8496
    600.00      281.0034       26.1509     -142.4511
    700.00      290.1843       32.1112     -171.0179
    800.00      298.5589       38.3859     -200.4612
    900.00      306.2531       44.9208     -230.7070
   1000.00      313.3654       51.6730     -261.6924
   1100.00      319.9743       58.6084     -293.3633
   1200.00      326.1434       65.6994     -325.6726
   1300.00      331.9250       72.9234     -358.5791
   1400.00      337.3627       80.2616     -392.0462
   1500.00      342.4931       87.6983     -426.0414
   1600.00      347.3475       95.2204     -460.5356
   1700.00      351.9526      102.8168     -495.5026
   1800.00      356.3316      110.4783     -530.9186
   1900.00      360.5046      118.1968     -566.7620
   2000.00      364.4894      125.9655     -603.0132
=======================================================
 @CHECKOUT-I, Total execution time (CPU/WALL):        0.02/       0.19 seconds.
--executable xjoda finished with status     0 in        0.20 seconds (walltime).
  The final electronic energy is      -168.296694959738915 a.u. 
  This computation required                         1940.91 seconds (walltime).

real	32m21.009s
user	18m20.428s
sys	4m57.754s
