 --invoking executable--
/home/orgChemistry/bin/cfour_v21/bin/xjoda


   *************************************************************************
         <<<     CCCCCC     CCCCCC   |||     CCCCCC     CCCCCC   >>>
       <<<      CCC        CCC       |||    CCC        CCC         >>>
      <<<      CCC        CCC        |||   CCC        CCC            >>>
    <<<        CCC        CCC        |||   CCC        CCC              >>>
      <<<      CCC        CCC        |||   CCC        CCC            >>>
       <<<      CCC        CCC       |||    CCC        CCC         >>>
         <<<     CCCCCC     CCCCCC   |||     CCCCCC     CCCCCC   >>>
   *************************************************************************

     ****************************************************************
     * CFOUR Coupled-Cluster techniques for Computational Chemistry *
     ****************************************************************
 

   Department of Chemistry                Institut fuer Physikalische Chemie
   University of Florida                  Universitaet Mainz
   Gainesville, FL 32611, USA             D-55099 Mainz, Germany

   Department of Chemistry                Fakultaet fuer Chemie und Biowiss.
   Johns Hopkins University               Karlsruher Institut fuer Technologie
   Baltimore, MD 21218, USA               D-76131 Karlsruhe, Germany

   Department of Chemistry                Department of Physical Chemistry
   Southern Methodist University          Eotvos Lorand University
   Dallas, TX 75275, USA                  H-1053 Budapest, Hungary

 
                       Version 2.1
 
                     node2-202                                         
                     Wed Jan 27 18:36:19 CET 2021                      
                     integer*8 version is running
 
********************************************************************************
*                          Input from ZMAT file                                *
********************************************************************************
title                                                                           
N                                                                               
C 1 R12*                                                                        
X 2 R23* 1 A123*                                                                
H 2 R24* 3 A324* 1 D1324*                                                       
                                                                                
R12           =        1.14593700                                               
R23           =        1.00013159                                               
A123          =        89.07056414                                              
R24           =        1.06592100                                               
A324          =        90.92943586                                              
D1324         =        180.00000000                                             
                                                                                
*CFOUR(CALC=CCSD(T),BASIS=cc-pVTZ,FROZEN_CORE=1                                 
       CONVERGENCE=8                                                            
       MEMORY_SIZE=5000,MEM_UNIT=MB,ABCDTYPE=AOBASIS,CC_PROG=ECC                
       MULTIPLICITY=1,CHARGE=0                                                  
       SCF_CONV=8,CC_CONV=10)                                                   
                                                                                
********************************************************************************
    -------------------------------------------------------------------
                    CFOUR Control Parameters 
    -------------------------------------------------------------------
        External           Internal           Value            Units
          Name               Name
    -------------------------------------------------------------------
       ABCDTYPE             IABCDT         AOBASIS     [  2]    ***   
       ANHARMONIC           IANHAR         OFF         [  0]    ***   
       ANH_ALGORIT          IANALG         STANDARD    [  0]    ***   
       ANH_DERIVAT          IANDER         SECOND      [  1]    ***   
       ANH_MODE             ANHMOD         VIBRATION   [  0]    ***   
       ANH_STEPSIZ          ICUBST             50000          x 10-6  
       ANH_SYMMETR          IANHSM         ABELIAN     [  0]    ***   
       AO_LADDERS           IAOLAD         SINGLEPASS  [  1]    ***   
       AV_SCF               IAVSCF         OFF         [  0]    ***   
       BASIS                IBASIS         PVTZ        [ 14]    ***   
       BOTHVECTORS          BOTHVC         OFF         [  0]    ***   
       BOX_POTENT           IPIAB          OFF         [  0]    ***   
       BREIT                IBREIT         OFF         [  0]    ***   
       BRUCK_CONV           IBRTOL          10D-  4             ***   
       BRUECKNER            IBRKNR         OFF         [  0]    ***   
       BUFFERSIZE           IBUFFS              4096            ***   
       CACHE_RECS           ICHREC             10               ***   
       CALCLEVEL            ICLLVL         CCSD(T)     [ 22]    ***   
       CCORBOPT             ICCORB         OFF         [  0]  x 0.01  
       CC_CONV              ICCCNV          10D- 10             ***   
       CC_EXPORDER          ICCEOR              5               ***   
       CC_EXTRAPOL          ICCEXT         DIIS        [  1]    ***   
       CC_GUESS             ICCGES         MP2         [  0]    ***   
       CC_MAXCYC            ICCCYC            100              cycles 
       CC_PROGRAM           ICCPRO         ECC         [  1]    ***   
       CHARGE               ICHRGE              0               ***   
       CHOLESKY             ICHOLE         OFF         [  0]    ***   
       CIS_CONV             ICISTL              5               ***   
       COMM_SIZE            IPSIZE            ***               ***   
       CONSTANT             ICONST         OLD         [  1]    ***   
       CONTINUUM            ICONTU         NONE        [  0]    ***   
       CONTRACTION          ICNTYP         GENERAL     [  1]    ***   
       COORDINATES          ICOORD         INTERNAL    [  0]    ***   
       CPHF_CONVER          ICPHFT          10D- 16             ***   
       CPHF_MAXCYC          ICPHFC             64              cycles 
       CUBIC                ICUBIC         OFF         [  0]    ***   
       CURVILINEAR          ICURVY         OFF         [  0]    ***   
       DBOC                 IDBOC          OFF         [  0]    ***   
       DCT                  IDCT           OFF         [  0]    ***   
       DERIV_LEV            IDRLVL         FIRST       [  1]    ***   
       DEVMEM_SIZE          IDVMEM         *********           MByte  
       DIAG_MRCC            IEOMST          10D-  0             ***   
       DIFF_TYPE            IDIFTY         RELAXED     [  0]    ***   
       DIRECT               IDIRCT         OFF         [  0]    ***   
       DROPMO               IDRPMO      NONE         
       ECP                  IECP           OFF         [  0]    ***   
       EIGENVECTOR          IVEC                1               ***   
       EL_ANHARM            IELANH         OFF         [  0]    ***   
       EOMFOLLOW            IEOMSR         ENERGY      [  0]    ***   
       EOMIP                IEOMIP         OFF         [  0]    ***   
       EOMLEVEL             HBARFM         SAME        [  0]    ***   
       EOM_MRCC             IMRCCE         NEW         [  1]    ***   
       EOM_NONIT            EOMNON         OFF         [  0]    ***   
       EOM_NSING            IEOMSI          10D-  0             ***   
       EOM_NSTATES          IMRCCD         DAVIDSON    [  0]    ***   
       EOM_NTRIP            IEOMTR          10D-  0             ***   
       EOM_ORDER            IEXORD         ENERGY      [  0]    ***   
       EOM_PROPSTA          IEOMST              0               ***   
       ESTATE_CONV          IEXTOL          10D-  5             ***   
       ESTATE_DIAG          IEXDIG         ITERATIVE   [  0]    ***   
       ESTATE_LOCK          IESLOC         ON          [  1]    ***   
       ESTATE_MAXC          IEXMXC             40               ***   
       ESTATE_PROP          IEXPRP         OFF         [  0]    ***   
       EVAL_HESS            IRECAL              0            # of cyc.
       EXCITATION           IEXCIT              0               ***   
       EXCITE               IEXCIT         NONE        [  0]    ***   
       EXTERN_POT           IEXPOT         OFF         [  0]    ***   
       FCGRADNEW            IFCGNW         OFF         [  0]    ***   
       FC_FIELD             IFINFC              0             x 10-6  
       FD_CALTYPE           IFDCAL         GRADONLY    [  0]    ***   
       FD_PROJECT           IFDPRJ         OFF         [  1]    ***   
       FD_STEPSIZE          IDISFD              0            10-4 bohr
       FD_USEGROUP          IFDGRP         FULL        [  0]    ***   
       FILE_RECSIZ          IFLREC              4096           words  
       FINITE_PERT          IFIPER              0             x 10-6  
       FIXGEOM              IFIXGM         OFF         [  0]    ***   
       FOCK                 IFOCK          AO          [  1]    ***   
       FREQ_ALGORI          IVIALG         STANDARD    [  0]    ***   
       FROZEN_CORE          IFROCO         ON          [  1]    ***   
       GAMMA_ABCD           IGABCD         DIRECT      [  1]    ***   
       GAMMA_ABCI           IGABCI         STORE       [  0]    ***   
       GENBAS_1             IGNBS1              0               ***   
       GENBAS_2             IGNBS2              0               ***   
       GENBAS_3             IGNBS3              0               ***   
       GENBAS_4             IGNBS4              0               ***   
       GEO_CONV             ICONTL              8              H/bohr 
       GEO_MAXCYC           IOPTCY             50               ***   
       GEO_MAXSTEP          IMXSTP            300            millibohr
       GEO_METHOD           INR            NR          [  0]    ***   
       GIAO                 IGIAO          OFF         [  1]    ***   
       GIMIC                IGIMIC         OFF         [  0]    ***   
       GRID                 IGRID          OFF         [  0]    ***   
       GRID_ALGO            IGALGO         SERIAL      [  0]    ***   
       GUESS                IGUESS         MOREAD      [  0]    ***   
       HBAR                 IHBAR          OFF         [  0]    ***   
       HESS_TYPE            IHESTP         SCF         [  0]    ***   
       HF2_FILE             IHF2Fl         USE         [  1]    ***   
       HFSTABILITY          ISTABL         OFF         [  0]    ***   
       INCORE               INCORE         OFF         [  0]    ***   
       INPUT_MRCC           IMRCC          ON          [  1]    ***   
       INTEGRALS            INTTYP         VMOL        [  1]    ***   
       JODA_PRINT           IJPRNT              0               ***   
       KEYWORD_OUT          IDMPKW         NO          [  0]    ***   
       LINDEP_TOL           ILINDP              8               ***   
       LINEQ_CONV           IZTACN          10D-  7           cycles  
       LINEQ_EXPOR          ILMAXD              5               ***   
       LINEQ_MAXCY          ILMAXC            100               ***   
       LINEQ_TYPE           ILTYPE         DIIS        [  1]    ***   
       LOCK_ORBOCC          ILOCOC         OFF         [  0]    ***   
       MEMORY_SIZE          IMEMSZ         625000000           words  
       MEM_UNIT             IMEMU          MB          [  2]    ***   
       MRCC                 IMRCCC         OFF         [  0]    ***   
       MULTIPLICTY          IMULTP              1               ***   
       NACOUPLING           IVCOUP         OFF         [  0]    ***   
       NEGEVAL              IDIE           ABORT       [  0]    ***   
       NEWNORM              INEWNO         OFF         [  0]    ***   
       NON-HF               INONHF         OFF         [  0]    ***   
       NTOP_TAMP            ITOPT2             15               ***   
       NUC_MODEL            INUCMO         POINT       [  0]    ***   
       OCCUPATION           IOCCU   ESTIMATED BY SCF 
       OPEN-SHELL           IOPEN          SPIN-ORBITAL[  0]    ***   
       OPTVIB               IOPTVB         OFF         [  0]    ***   
       ORBITALS             IORBTP         STANDARD    [  0]    ***   
       PARALLEL             IPARAL         ON          [  1]    ***   
       PARA_INT             IPINTS         ON          [  1]    ***   
       PARA_PRINT           IPPRIN              0               ***   
       PERT_ORB             IPTORB         CANONICAL   [  1]    ***   
       POINTS               IGRDFD              0               ***   
       PRINT                IPRNT               0               ***   
       PROPS                IPROPS         OFF         [  0]    ***   
       PROP_INTEGR          IINTYP         INTERNAL    [  0]    ***   
       PSI                  IPSI           OFF         [  0]    ***   
       QC_ALG               IQCALG         FLM         [  0]    ***   
       QC_LINALG            IQCLIN         TRIDIAG     [  2]    ***   
       QC_MAXCYC            IQCMAX          10D-100           cycles  
       QC_MAXSCFCY          IQCMSC          10D- 15           cycles  
       QC_RTRUST            IQCRTR          10D-  0           x 10-3  
       QC_SKIPSCF           IQCSKI         OFF         [  0]    ***   
       QC_START             IQCSTA          10D-  1             ***   
       QRHFGUESS            IQGUES         OFF         [  0]    ***   
       QUARTIC              IQUART         OFF         [  0]    ***   
       RAMAN_INT            IRAMIN         OFF         [  0]    ***   
       RAMAN_ORB            IRAMRE         UNRELAXED   [  0]    ***   
       RDO                  IRDOFM         ON          [  1]    ***   
       REDUCE_REPR          REDREP         Ir          [  0]    ***   
       REFERENCE            IREFNC         RHF         [  0]    ***   
       RELATIVIST           IRELAT         OFF         [  0]    ***   
       RELAX_DENS           IRDENS         ON          [  1]    ***   
       RESET_FLAGS          IRESET         OFF         [  0]    ***   
       RESTART_CC           ICCRES         OFF         [  0]    ***   
       ROT_EVEC             ROTVEC              0               ***   
       SAVE_INTS            ISVINT         OFF         [  0]    ***   
       SCALE_ON             ISTCRT              0               ***   
       SCF_CONV             ISCFCV          10D-  8             ***   
       SCF_DAMPING          IDAMP               0             x 10-3  
       SCF_EXPORDE          IRPPOR              6               ***   
       SCF_EXPSTAR          IRPPLS              8               ***   
       SCF_EXTRAPO          IRPP           ON          [  1]    ***   
       SCF_MAXCYC           ISCFCY            150              cycles 
       SCF_NOSTOP           ISCFST         OFF         [  0]    ***   
       SCF_PRINT            ISCFPR              0               ***   
       SCF_PROG             ISCFPR         SCF         [  0]    ***   
       SD_FIELD             IFINSD              0             x 10-6  
       SOPERT               IPERSO         OFF         [  0]    ***   
       SPHERICAL            IDFGHI         ON          [  1]    ***   
       SPINORBIT            ISOCAL         OFF         [  0]    ***   
       SPINROTATIO          ISRCON         OFF         [  0]    ***   
       SPIN_FLIP            ISPFLP         OFF         [  0]    ***   
       SPIN_ORBIT           ISPORB         OFF         [  0]    ***   
       SPIN_SCAL            ISCSMP         OFF         [  0]    ***   
       STEEPSCALE           ISTPSC              1000          x 10-3  
       SUBGROUP             ISUBGP         DEFAULT     [  0]    ***   
       SUBGRPAXIS           ISBXYZ         X           [  0]    ***   
       SYMMETRY             ISYM           ON          [  0]    ***   
       SYM_CHECK            ISYMCK         OVERRIDE    [  1]    ***   
       T3_EXTRAPOL          IT3EXT         OFF         [  0]    ***   
       T4_EXTRAPOL          IT4EXP         OFF         [  0]    ***   
       TAMP_SUM             IEVERY              5               ***   
       TESTSUITE            ITESTS         OFF         [  0]    ***   
       THERMOCH             ITHERM         OFF         [  0]    ***   
       TOL_CHOLESK          ITOLCH          10D-  4             ***   
       TRANGRAD             IRESRM         OFF         [  0]    ***   
       TRANS_INV            ITRAIN         USE         [  0]    ***   
       TREAT_PERT           ITREAT         SIMULTANEOUS[  0]    ***   
       TRIP_ALGORI          ITRALG         NORMAL      [  0]    ***   
       UIJ_THRESHO          IUIJTH              1               ***   
       UNITS                IUNITS         ANGSTROM    [  0]    ***   
       UNOS                 IUNOS          OFF         [  0]    ***   
       UPDATE_HESS          IHUPDT         ON          [  1]    ***   
       VIBPHASE             ISETPH         STANDARD    [  0]    ***   
       VIBRATION            IVIB           NO          [  0]    ***   
       VIB_ALGORIT          IGEALG         STANDARD    [  0]    ***   
       VNATORB              IVNORB         OFF         [  0]    ***   
       VTRAN                IVTRAN         PARTIAL     [  2]    ***   
       XFIELD               IXEFLD              0             x 10-6  
       XFORM_TOL            IXFTOL          10D- 11             ***   
       YFIELD               IYEFLD              0             x 10-6  
       ZFIELD               IZEFLD              0             x 10-6  
       ZSCALE_EXP           IZEXPS         OFF         [  0]    ***   
    -------------------------------------------------------------------
   4 entries found in Z-matrix 
   Job Title : title                                                                           
   There are  6 unique internal coordinates.
   Of these,  6 will be optimized.
   User supplied Z-matrix: 
--------------------------------------------------------------------------------
       SYMBOL    BOND      LENGTH    ANGLE     ANGLE     DIHED     ANGLE
                  TO      (ANGST)    WRT      (DEG)      WRT      (DEG)
--------------------------------------------------------------------------------
        N    
        C          1         R12  
        X          2         R23        1        A123 
        H          2         R24        3        A324       1        D1324
                  *Initial values for internal coordinates* 
                      Name             Value
                        R12             1.1459370000
                        R23             1.0001315900
                        A123           89.0705641400
                        R24             1.0659210000
                        A324           90.9294358600
                        D1324         180.0000000000
--------------------------------------------------------------------------------
  filter applied 
  filter applied 
   Rotational constants (in cm-1): 
          1.5005640751             1.5005640751
   Rotational constants (in MHz): 
      44985.7855471862         44985.7855471862
********************************************************************************
   The full molecular point group is CXv .
   The largest Abelian subgroup of the full molecular point group is C2v .
   The computational point group is C2v .
********************************************************************************
--------------------------------------------------------------------------------
   Analysis of internal coordinates specified by Z-matrix 
--------------------------------------------------------------------------------
   *The nuclear repulsion energy is   24.048413420107178 a.u.
  *WARNING* Parameter R23  [  2] cannot have a nonzero derivative,
    but is being optimized.  Reconstruction of Z-matrix recommended.
  *WARNING* Parameter A123 [  3] cannot have a nonzero derivative,
    but is being optimized.  Reconstruction of Z-matrix recommended.
  *WARNING* Parameter A324 [  5] cannot have a nonzero derivative,
    but is being optimized.  Reconstruction of Z-matrix recommended.
  *WARNING* Parameter D1324[  6] cannot have a nonzero derivative,
    but is being optimized.  Reconstruction of Z-matrix recommended.
   *There are   2 degrees of freedom within the tot. symm. molecular subspace.
   *Z-matrix requests optimization of   6 coordinates.
   *The following   2 parameters can have non-zero 
    derivatives within the totally symmetric subspace:
             R24  [ 4]  R12  [ 1]
   *The following   6 parameters are to be optimized:
             R12  [ 1]  R23  [ 2]  A123 [ 3]  R24  [ 4]  A324 [ 5]  D1324[ 6]

--------------------------------------------------------------------------------


 ----------------------------------------------------------------
         Coordinates used in calculation (QCOMP) 
 ----------------------------------------------------------------
 Z-matrix   Atomic            Coordinates (in bohr)
  Symbol    Number           X              Y              Z
 ----------------------------------------------------------------
     N         7        -0.00000000    -0.00000000    -1.11801552
     C         6        -0.00000000     0.00000000     1.04749202
     X         0        -0.00000000     1.88972653     1.01683472
     H         1         0.00000000     0.00000000     3.06179120
 ----------------------------------------------------------------
 
   Interatomic distance matrix (Angstroms) 
 
                 N             C             X             H    
                [ 1]        [ 2]        [ 3]        [ 4]
  N    [ 1]     0.00000
  C    [ 2]     1.14594     0.00000
  X    [ 3]     1.50873     1.00013     0.00000
  H    [ 4]     2.21186     1.06592     1.47344     0.00000
 rotcon2
   Rotational constants (in cm-1): 
          1.5005640751             0.0000000000
   Rotational constants (in MHz): 
      44985.7855471862             0.0000000000
  There are   2 frozen-core orbitals.
  There are   74 basis functions.
 @CHECKOUT-I, Total execution time (CPU/WALL):        0.10/       0.28 seconds.
--executable xjoda finished with status     0 in        0.53 seconds (walltime).
 --invoking executable--
/home/orgChemistry/bin/cfour_v21/bin/xvmol
 SERIAL VERSION OF MOLECULE STARTED
********************************************************************************
                    INPUT FROM MOL FILE
********************************************************************************
INTGRL        1    0    1    0    0    0    0    0    0                         
         *** CFOUR Program System (Release V0.1) ***                            
title                                                                           
    3    2 X  Y       0.10E-08              0    0                              
   9999.00      3.00                                                            
          7.00000000    1    4    1    1    1    1                              
N #1  -0.000000000000000  -0.000000000000000  -1.118015520107402                
   10    4                                                                      
   11420.0000000000       5.230000000000000E-004 -1.150000000000000E-004        
  0.000000000000000E+000  0.000000000000000E+000                                
   1712.00000000000       4.045000000000000E-003 -8.950000000000000E-004        
  0.000000000000000E+000  0.000000000000000E+000                                
   389.300000000000       2.077500000000000E-002 -4.624000000000000E-003        
  0.000000000000000E+000  0.000000000000000E+000                                
   110.000000000000       8.072699999999999E-002 -1.852800000000000E-002        
  0.000000000000000E+000  0.000000000000000E+000                                
   35.5700000000000       0.233074000000000      -5.733900000000000E-002        
  0.000000000000000E+000  0.000000000000000E+000                                
   12.5400000000000       0.433501000000000      -0.132076000000000             
  0.000000000000000E+000  0.000000000000000E+000                                
   4.64400000000000       0.347472000000000      -0.172510000000000             
  0.000000000000000E+000  0.000000000000000E+000                                
   1.29300000000000       4.126200000000000E-002  0.151814000000000             
   1.00000000000000       0.000000000000000E+000                                
  0.511800000000000      -8.508000000000000E-003  0.599944000000000             
  0.000000000000000E+000  0.000000000000000E+000                                
  0.178700000000000       2.384000000000000E-003  0.387462000000000             
  0.000000000000000E+000   1.00000000000000                                     
    5    3                                                                      
   26.6300000000000       1.467000000000000E-002  0.000000000000000E+000        
  0.000000000000000E+000                                                        
   5.94800000000000       9.176400000000000E-002  0.000000000000000E+000        
  0.000000000000000E+000                                                        
   1.74200000000000       0.298683000000000       0.000000000000000E+000        
  0.000000000000000E+000                                                        
  0.555000000000000       0.498487000000000        1.00000000000000             
  0.000000000000000E+000                                                        
  0.172500000000000       0.337023000000000       0.000000000000000E+000        
   1.00000000000000                                                             
    2    2                                                                      
   1.65400000000000        1.00000000000000       0.000000000000000E+000        
  0.469000000000000       0.000000000000000E+000   1.00000000000000             
    1    1                                                                      
   1.09300000000000        1.00000000000000                                     
          6.00000000    1    4    1    1    1    1                              
C #2  -0.000000000000000   0.000000000000000   1.047492019806929                
   10    4                                                                      
   8236.00000000000       5.310000000000000E-004 -1.130000000000000E-004        
  0.000000000000000E+000  0.000000000000000E+000                                
   1235.00000000000       4.108000000000000E-003 -8.780000000000000E-004        
  0.000000000000000E+000  0.000000000000000E+000                                
   280.800000000000       2.108700000000000E-002 -4.540000000000000E-003        
  0.000000000000000E+000  0.000000000000000E+000                                
   79.2700000000000       8.185300000000000E-002 -1.813300000000000E-002        
  0.000000000000000E+000  0.000000000000000E+000                                
   25.5900000000000       0.234817000000000      -5.576000000000000E-002        
  0.000000000000000E+000  0.000000000000000E+000                                
   8.99700000000000       0.434401000000000      -0.126895000000000             
  0.000000000000000E+000  0.000000000000000E+000                                
   3.31900000000000       0.346129000000000      -0.170352000000000             
  0.000000000000000E+000  0.000000000000000E+000                                
  0.905900000000000       3.937800000000000E-002  0.140382000000000             
   1.00000000000000       0.000000000000000E+000                                
  0.364300000000000      -8.983000000000000E-003  0.598684000000000             
  0.000000000000000E+000  0.000000000000000E+000                                
  0.128500000000000       2.385000000000000E-003  0.395389000000000             
  0.000000000000000E+000   1.00000000000000                                     
    5    3                                                                      
   18.7100000000000       1.403100000000000E-002  0.000000000000000E+000        
  0.000000000000000E+000                                                        
   4.13300000000000       8.686600000000000E-002  0.000000000000000E+000        
  0.000000000000000E+000                                                        
   1.20000000000000       0.290216000000000       0.000000000000000E+000        
  0.000000000000000E+000                                                        
  0.382700000000000       0.501008000000000        1.00000000000000             
  0.000000000000000E+000                                                        
  0.120900000000000       0.343406000000000       0.000000000000000E+000        
   1.00000000000000                                                             
    2    2                                                                      
   1.09700000000000        1.00000000000000       0.000000000000000E+000        
  0.318000000000000       0.000000000000000E+000   1.00000000000000             
    1    1                                                                      
  0.761000000000000        1.00000000000000                                     
          1.00000000    1    3    1    1    1                                   
H #3   0.000000000000000   0.000000000000001   3.061791202443517                
    5    3                                                                      
   33.8700000000000       6.068000000000000E-003  0.000000000000000E+000        
  0.000000000000000E+000                                                        
   5.09500000000000       4.530800000000000E-002  0.000000000000000E+000        
  0.000000000000000E+000                                                        
   1.15900000000000       0.202822000000000       0.000000000000000E+000        
  0.000000000000000E+000                                                        
  0.325800000000000       0.503903000000000        1.00000000000000             
  0.000000000000000E+000                                                        
  0.102700000000000       0.383421000000000       0.000000000000000E+000        
   1.00000000000000                                                             
    2    2                                                                      
   1.40700000000000        1.00000000000000       0.000000000000000E+000        
  0.388000000000000       0.000000000000000E+000   1.00000000000000             
    1    1                                                                      
   1.05700000000000        1.00000000000000                                     
FINISH                                                                          
 
********************************************************************************
 ONE- AND TWO-ELECTRON INTEGRALS OVER SYMMETRY-ADAPTED AOS ARE CALCULATED.

  SPHERICAL HARMONICS ARE USED.
  
  INTEGRALS LESS THAN  0.10E-13 ARE NEGLECTED.

  NUCLEAR REPULSION ENERGY :   24.0484134201 A.U.
  @MOLECU-I, ONE ELECTRON INTEGRALS (CPU/WALL):        0.01/       0.01 SECONDS.
  @TWOEL-I,     109019 INTEGRALS OF SYMMETRY TYPE  I I I I
  @TWOEL-I,     336765 INTEGRALS OF SYMMETRY TYPE  I J I J
  @TWOEL-I,     186232 INTEGRALS OF SYMMETRY TYPE  I I J J
  @TWOEL-I,     181498 INTEGRALS OF SYMMETRY TYPE  I J K L
  @TWOEL-I, TOTAL NUMBER OF 2-E INTEGRALS     813514.
  @MOLECU-I, TWO ELECTRON INTEGRALS (CPU/WALL):        0.65/       0.78 SECONDS.
 @CHECKOUT-I, Total execution time (CPU/WALL):        0.67/       0.83 seconds.

Running with 24 threads/proc

--executable xvmol finished with status     0 in        0.93 seconds (walltime).
 --invoking executable--
/home/orgChemistry/bin/cfour_v21/bin/xvmol2ja
 @GETMEM-I,  Allocated    4768 MB of main memory.
 @CHECKOUT-I, Total execution time (CPU/WALL):        0.00/       0.01 seconds.
--executable xvmol2ja finished with status     0 in        0.27 seconds (walltime).
 --invoking executable--
/home/orgChemistry/bin/cfour_v21/bin/xvscf
  There are   74 functions in the AO basis.

  There are 4 irreducible representations.

       Irrep        # of functions
         1                 33
         2                 17
         3                 17
         4                  7


  Parameters for SCF calculation: 
        SCF reference function:  RHF  
  Maximum number of iterations:  150
     Full symmetry point group: CXv 
     Computational point group: C2v 
        Initial density matrix: MOREAD                 
     SCF convergence tolerance: 10**(- 8)
  DIIS convergence acceleration:  ON
          Latest start for DIIS:   8
                     DIIS order:   6

  Memory information:     278819 words required.
  Fock matrices are constructed from AO integral file.
 @GETMEM-I,  Allocated       2 MB of main memory.
  Initialization and symmetry analysis required      0.002 seconds.

  @INITGES-I, Occupancies from core Hamiltonian:

          Alpha population by irrep:   5    1    1    0
           Beta population by irrep:   5    1    1    0


 total no. of electrons in initial guess :  0.000000000000000E+000
  --------------------------------------------------------------------
  Iteration         Total Energy            Largest Density Difference
  --------------------------------------------------------------------
       0            24.048413420107181              0.0000000000D+00
   current occupation vector 
     5  1  1  0
     5  1  1  0
       1           -72.874577731453186              0.1491320502D+02
   current occupation vector 
     5  1  1  0
     5  1  1  0
       2           -78.823295404400213              0.1491118898D+02
   current occupation vector 
     5  1  1  0
     5  1  1  0
       3           -82.561651445127382              0.1233652896D+02
   current occupation vector 
     5  1  1  0
     5  1  1  0
       4           -82.053814852223198              0.7609078390D+01
   current occupation vector 
     5  1  1  0
     5  1  1  0
       5           -82.318185780282477              0.7588831460D+01
   current occupation vector 
     5  1  1  0
     5  1  1  0
       6           -82.666271258383262              0.5685947526D+01
   current occupation vector 
     5  1  1  0
     5  1  1  0
       7           -82.552093832209380              0.5268028100D+01
   current occupation vector 
     5  1  1  0
     5  1  1  0
       8           -82.687258488431453              0.5272941391D+01
   current occupation vector 
     5  1  1  0
     5  1  1  0
       9           -91.760399427593782              0.3913536878D+01
   current occupation vector 
     5  1  1  0
     5  1  1  0
      10           -92.699967261748910              0.7720156133D+00
   current occupation vector 
     5  1  1  0
     5  1  1  0
      11           -92.905414045594796              0.3377827795D+00
   current occupation vector 
     5  1  1  0
     5  1  1  0
      12           -92.908462772192863              0.7046822132D-01
   current occupation vector 
     5  1  1  0
     5  1  1  0
      13           -92.908922467021725              0.2857574029D-01
   current occupation vector 
     5  1  1  0
     5  1  1  0
      14           -92.908972417343364              0.1278766759D-01
   current occupation vector 
     5  1  1  0
     5  1  1  0
      15           -92.908972812416749              0.1089495341D-02
   current occupation vector 
     5  1  1  0
     5  1  1  0
      16           -92.908972825705433              0.2444520252D-03
   current occupation vector 
     5  1  1  0
     5  1  1  0
      17           -92.908972826292711              0.3864967207D-04
   current occupation vector 
     5  1  1  0
     5  1  1  0
      18           -92.908972826304250              0.6715478563D-05
   current occupation vector 
     5  1  1  0
     5  1  1  0
      19           -92.908972826304606              0.1358766068D-05
   current occupation vector 
     5  1  1  0
     5  1  1  0
      20           -92.908972826304577              0.1318956185D-06
   current occupation vector 
     5  1  1  0
     5  1  1  0
      21           -92.908972826304392              0.2201955618D-07
   current occupation vector 
     5  1  1  0
     5  1  1  0

  SCF has converged.

 Density matrix saved to file den.dat
 total electron number:   14.0000000000000     
     E(SCF)=       -92.908972826304236              0.6414103026D-08

  Eigenvector printing suppressed.

 @PUTMOS-I, Writing converged MOs to NEWMOS. 
 @PUTMOS-I, Symmetry   1 Full Blocks  8 Partial Blocksize   1
 @PUTMOS-I, Symmetry   2 Full Blocks  4 Partial Blocksize   1
 @PUTMOS-I, Symmetry   3 Full Blocks  4 Partial Blocksize   1
 @PUTMOS-I, Symmetry   4 Full Blocks  1 Partial Blocksize   3
 @PUTFOCK-I, Writing converged Fock matrix to NEWFOCK. 
 @PUTFOCK-I, Symmetry   1 Full Blocks  8 Partial Blocksize   1
 @PUTFOCK-I, Symmetry   2 Full Blocks  4 Partial Blocksize   1
 @PUTFOCK-I, Symmetry   3 Full Blocks  4 Partial Blocksize   1
 @PUTFOCK-I, Symmetry   4 Full Blocks  1 Partial Blocksize   3


 
  ORBITAL EIGENVALUES (ALPHA)  (1H = 27.2113834 eV)

       MO #        E(hartree)               E(eV)           FULLSYM    COMPSYM
       ----   --------------------   --------------------   -------   ---------
    1     1         -15.5954085332        -424.3726408759     SG+        A1 (1)
    2     2         -11.2879400549        -307.1604646301     SG+        A1 (1)
    3     3          -1.2388423642         -33.7106145457     SG+        A1 (1)
    4     4          -0.8106285519         -22.0583243199     SG+        A1 (1)
    5     5          -0.5806032818         -15.7990185051     SG+        A1 (1)
    6    34          -0.4977802041         -13.5452879840      PI        B1 (2)
    7    51          -0.4977802041         -13.5452879840      PI        B2 (3)
  +++++++++++++++++++++++++++++++++++++++++++++++++++++++++++++++++++++++++++++
    8     6           0.1421179403           3.8672257611     SG+        A1 (1)
    9    52           0.1692222785           4.6047723006      PI        B2 (3)
   10    35           0.1692222785           4.6047723006      PI        B1 (2)
   11     7           0.2410682712           6.5598011532     SG+        A1 (1)
   12    53           0.4464521456          12.1485805038      PI        B2 (3)
   13    36           0.4464521456          12.1485805038      PI        B1 (2)
   14     8           0.4752650451          12.9326193600     SG+        A1 (1)
   15     9           0.5659788847          15.4010684267     SG+        A1 (1)
   16    10           0.6221699701          16.9301055971     SG+        A1 (1)
   17    54           0.7148239487          19.4513485321      PI        B2 (3)
   18    37           0.7148239487          19.4513485321      PI        B1 (2)
   19    68           0.8105073178          22.0550253736      DE        A2 (4)
   20    11           0.8105073178          22.0550253736      DE        A1 (1)
   21    55           0.8661201834          23.5683283814      PI        B2 (3)
   22    38           0.8661201834          23.5683283814      PI        B1 (2)
   23    12           0.9835395147          26.7634708224     SG+        A1 (1)
   24    13           1.1986743938          32.6175885008     SG+        A1 (1)
   25    56           1.3899554858          37.8226116343      PI        B2 (3)
   26    39           1.3899554858          37.8226116343      PI        B1 (2)
   27    69           1.4221791606          38.6994624020      DE        A2 (4)
   28    14           1.4221791606          38.6994624020      DE        A1 (1)
   29    15           1.6038899013          43.6440630351     SG+        A1 (1)
   30    16           1.7726833189          48.2371654377     SG+        A1 (1)
   31    40           1.9244560787          52.3671121935      PI        B1 (2)
   32    57           1.9244560787          52.3671121935      PI        B2 (3)
   33    17           2.0845357967          56.7231027749     SG+        A1 (1)
   34    58           2.3327110302          63.4762942046      PI        B2 (3)
   35    41           2.3327110302          63.4762942046      PI        B1 (2)
   36    18           2.4890983671          67.7318099864     SG+        A1 (1)
   37    19           2.8613250034          77.8606117003     SG+        A1 (1)
   38    42           2.9290079321          79.7023578221      PH        B1 (2)
   39    59           2.9290079321          79.7023578221      PH        B2 (3)
   40    70           2.9325663614          79.7991876074      DE        A2 (4)
   41    20           2.9325663614          79.7991876074      DE        A1 (1)
   42    60           3.0381454858          82.6721416389      PI        B2 (3)
   43    43           3.0381454858          82.6721416389      PI        B1 (2)
   44    71           3.2295440321          87.8803608634      DE        A2 (4)
   45    21           3.2295440321          87.8803608634      DE        A1 (1)
   46    44           3.4572837882          94.0774746836      PI        B1 (2)
   47    61           3.4572837882          94.0774746836      PI        B2 (3)
   48    22           3.4734258594          94.5167227719     SG+        A1 (1)
   49    62           3.5781943623          97.3676186718      PI        B2 (3)
   50    45           3.5781943623          97.3676186718      PI        B1 (2)
   51    72           3.8372643833         104.4172723421      DE        A2 (4)
   52    23           3.8372643833         104.4172723421      DE        A1 (1)
   53    24           4.0393740595         109.9169562288     SG+        A1 (1)
   54    46           4.3194349025         117.5377992025      PI        B1 (2)
   55    63           4.3194349025         117.5377992025      PI        B2 (3)
   56    47           4.3274405026         117.7556426572      PH        B1 (2)
   57    64           4.3274405026         117.7556426572      PH        B2 (3)
   58    25           4.3875348141         119.3908920078     SG+        A1 (1)
   59    73           4.9289138974         134.1225658074      DE        A2 (4)
   60    26           4.9289138974         134.1225658074      DE        A1 (1)
   61    48           4.9649996296         135.1045085026      PI        B1 (2)
   62    65           4.9649996296         135.1045085026      PI        B2 (3)
   63    74           5.0561993025         137.5861777663      DE        A2 (4)
   64    27           5.0561993025         137.5861777663      DE        A1 (1)
   65    28           5.0992334107         138.7571953857     SG+        A1 (1)
   66    29           5.4644861474         148.6962276408     SG+        A1 (1)
   67    49           5.6830217584         154.6428839396      PI        B1 (2)
   68    66           5.6830217584         154.6428839396      PI        B2 (3)
   69    30           6.1566932404         167.5321402399     SG+        A1 (1)
   70    50           6.6431610419         180.7696021000      PI        B1 (2)
   71    67           6.6431610419         180.7696021000      PI        B2 (3)
   72    31           6.9295711073         188.5632161975     SG+        A1 (1)
   73    32           8.7106227463         237.0280952021     SG+        A1 (1)
   74    33          15.3883786825         418.7390722327     SG+        A1 (1)


  VSCF finished.

 @CHECKOUT-I, Total execution time (CPU/WALL):        0.20/       0.50 seconds.
--executable xvscf finished with status     0 in        0.85 seconds (walltime).
 --invoking executable--
/home/orgChemistry/bin/cfour_v21/bin/xvtran
 @GETMEM-I,  Allocated    4768 MB of main memory.
  Partial RHF integral transformation
  Frozen-core orbitals requested within analytic derivative calculation
  Transformation of IIII integrals :
  1 pass through the AO integral file was required.
      109019 AO integrals were read.
       74228 MO integrals were written to HF2.
  Transformation of IIJJ integrals :
  1 pass through the AO integral file was required.
      186232 AO integrals were read.
       70477 MO integrals were written to HF2.
  Transformation of IJIJ integrals :
  1 pass through the AO integral file was required.
      336765 AO integrals were read.
      129238 MO integrals were written to HF2.
  Transformation of IJKL integrals :
  1 pass through the AO integral file was required.
      181498 AO integrals were read.
       49219 MO integrals were written to HF2.
  Summary of active molecular orbitals: 
------------------------------------------------------------------------
 
  Index      Eigenvalue    Symmetry    Index      Eigenvalue    Symmetry
------------------------------------------------------------------------
     1       -15.5954085        1        38         0.7148239        2
     2       -11.2879401        1        39         0.8661202        2
     3        -1.2388424        1        40         1.3899555        2
     4        -0.8106286        1        41         1.9244561        2
     5        -0.5806033        1        42         2.3327110        2
     6        -0.4977802        2        43         2.9290079        2
     7        -0.4977802        3        44         3.0381455        2
     8         0.1421179        1        45         3.4572838        2
     9         0.2410683        1        46         3.5781944        2
    10         0.4752650        1        47         4.3194349        2
    11         0.5659789        1        48         4.3274405        2
    12         0.6221700        1        49         4.9649996        2
    13         0.8105073        1        50         5.6830218        2
    14         0.9835395        1        51         6.6431610        2
    15         1.1986744        1        52         0.1692223        3
    16         1.4221792        1        53         0.4464521        3
    17         1.6038899        1        54         0.7148239        3
    18         1.7726833        1        55         0.8661202        3
    19         2.0845358        1        56         1.3899555        3
    20         2.4890984        1        57         1.9244561        3
    21         2.8613250        1        58         2.3327110        3
    22         2.9325664        1        59         2.9290079        3
    23         3.2295440        1        60         3.0381455        3
    24         3.4734259        1        61         3.4572838        3
    25         3.8372644        1        62         3.5781944        3
    26         4.0393741        1        63         4.3194349        3
    27         4.3875348        1        64         4.3274405        3
    28         4.9289139        1        65         4.9649996        3
    29         5.0561993        1        66         5.6830218        3
    30         5.0992334        1        67         6.6431610        3
    31         5.4644861        1        68         0.8105073        4
    32         6.1566932        1        69         1.4221792        4
    33         6.9295711        1        70         2.9325664        4
    34         8.7106227        1        71         3.2295440        4
    35        15.3883787        1        72         3.8372644        4
    36         0.1692223        2        73         4.9289139        4
    37         0.4464521        2        74         5.0561993        4
------------------------------------------------------------------------
  -15.5954085331783       -11.2879400548985       -1.23884236424738     
 -0.810628551870405      -0.580603281828682      -0.497780204147944     
 -0.497780204147943       0.142117940283603       0.241068271199870     
  0.475265045143684       0.565978884657452       0.622169970126240     
  0.810507317817455       0.983539514657689        1.19867439377550     
   1.42217916057890        1.60388990127825        1.77268331891146     
   2.08453579669712        2.48909836706117        2.86132500343036     
   2.93256636144982        3.22954403205529        3.47342585941118     
   3.83726438333545        4.03937405949149        4.38753481411808     
   4.92891389738576        5.05619930247010        5.09923341073929     
   5.46448614739850        6.15669324036845        6.92957110727105     
   8.71062274628982        15.3883786824548       0.169222278519318     
  0.446452145605948       0.714823948717807       0.866120183416990     
   1.38995548584559        1.92445607868453        2.33271103021428     
   2.92900793210408        3.03814548579454        3.45728378820979     
   3.57819436228369        4.31943490247001        4.32744050261043     
   4.96499962962451        5.68302175844566        6.64316104193226     
  0.169222278519314       0.446452145605947       0.714823948717765     
  0.866120183416982        1.38995548584558        1.92445607868463     
   2.33271103021423        2.92900793210409        3.03814548579453     
   3.45728378820983        3.57819436228367        4.31943490247005     
   4.32744050261045        4.96499962962455        5.68302175844573     
   6.64316104193252       0.810507317817455        1.42217916057889     
   2.93256636144980        3.22954403205527        3.83726438333542     
   4.92891389738573        5.05619930247009     
 @CHECKOUT-I, Total execution time (CPU/WALL):        0.06/       0.15 seconds.
--executable xvtran finished with status     0 in        0.38 seconds (walltime).
 --invoking executable--
/home/orgChemistry/bin/cfour_v21/bin/xintprc
 @GETMEM-I,  Allocated    4768 MB of main memory.
  @GMOIAA-I, Processing MO integrals for spin case AA.
  @GMOIAA-I, Generation of integral list completed.
                      TYPE                NUMBER
                      ----               --------
                      PPPP                     0
                      PPPH                272108
                      PPHH                 29272
                      PHPH                 17582
                      PHHH                  4016
                      HHHH                   184

                     TOTAL                323162

  @FORMT2-I, Second-order MP correlation energies:
            ------------------------------------------------
            E(SCF)                  =    -92.908972826304 a.u.
            E2(AA)                  =     -0.042183717002 a.u.
            E2(AB)                  =     -0.259360248318 a.u.
            E2(TOT)                 =     -0.343727682321 a.u.
            Total MP2 energy        =    -93.252700508626 a.u.
            ------------------------------------------------
   Largest T2 amplitudes for spin case AB:
       _       _                 _       _                 _       _
   i   j   a   b             i   j   a   b             i   j   a   b
-----------------------------------------------------------------------------
[  6   6  36  36]-0.07256 [  7   7  52  52]-0.07256 [  7   6  52  36]-0.05829
[  6   7  36  52]-0.05829 [  6   6  38  36]-0.03119 [  6   6  36  38]-0.03119
[  7   7  54  52]-0.03119 [  7   7  52  54]-0.03119 [  6   6  37  37]-0.02896
[  7   7  53  53]-0.02896 [  7   6  54  36]-0.02544 [  6   7  36  54]-0.02544
[  7   6  52  38]-0.02544 [  6   7  38  52]-0.02544 [  5   5  15  15]-0.02533
-----------------------------------------------------------------------------
   Norm of T2AB vector (    60523 symmetry allowed elements):  0.2968927346.
-----------------------------------------------------------------------------
 @CHECKOUT-I, Total execution time (CPU/WALL):        0.06/       0.25 seconds.
--executable xintprc finished with status     0 in        0.46 seconds (walltime).
  calling xecc 
 --invoking executable--
/home/orgChemistry/bin/cfour_v21/bin/xecc
 @GETMEM-I,  Allocated    4768 MB of main memory.
 CCSD(T) energy will be calculated.
 AO based algorithm is used. 
   Frozen core orbitals in analytic derivative calculation
 Largest T2 amplitudes for spin case AB:
        _       _                 _       _                 _       _
    i   j   a   b             i   j   a   b             i   j   a   b
 -----------------------------------------------------------------------------
 [  6   6  36  36]-0.07256 [  7   7  52  52]-0.07256 [  7   6  52  36]-0.05829
 [  6   7  36  52]-0.05829 [  6   6  38  36]-0.03119 [  6   6  36  38]-0.03119
 [  7   7  54  52]-0.03119 [  7   7  52  54]-0.03119 [  6   6  37  37]-0.02896
 [  7   7  53  53]-0.02896 [  7   6  54  36]-0.02544 [  6   7  36  54]-0.02544
 [  7   6  52  38]-0.02544 [  6   7  38  52]-0.02544 [  5   5  15  15]-0.02533
 -----------------------------------------------------------------------------
 Norm of T2AB vector (    60523 symmetry allowed elements):  0.2968927346.
 -----------------------------------------------------------------------------
 The total correlation energy is -0.343727682321 a.u.
 Resorts of amplitudes and integrals (CPU/WALL):       0.00/       0.01 seconds.
 Starting iterative solution of the CC equations.
 The DIIS procedure is used to accelerate convergence.
 5 expansion vectors are used in the DIIS extrapolation.
 Convergence criterium is 10**(-10).
 Maximum number of iterations is 100.
 >>>>>>>>>>>>>>>>>>>>>>>>>>>>>>>>>>>>>>>>>>>>>>>>>>>>>>>>>>>>>>>>>>>>>>>>>>>>>>>
 Iteration Nr.   1 started:
 Generation of Intermediates required (CPU/WALL):      0.03/       0.08 seconds.
 Transformation of t(ab,ij) amplitudes required    0.0 seconds.
 Contraction of t(mu nu,ij) with AO integrals required    0.1 seconds.
 Backtransformation of t(mu nu,ij) increments required    0.0 seconds.
 Construction of Hbar required (CPU/WALL):             0.08/       0.14 seconds.
   Frozen core orbitals in analytic derivative calculation
 Amplitude changes are:
 -------------------------------------------------------------------
              Spin      RMS          Max.      Max. change for
  Amplitude   Case     Change       Change       i    j    a    b
 -------------------------------------------------------------------
     T1        AA    0.0002260162-0.0158040819    6        37
     T2        AB    0.0000007229 0.0084018782    6    7   36   52
 -------------------------------------------------------------------
 The total correlation energy is -0.333905789470 a.u.
 Convergence information after     1 iterations: 
 Largest element of residual vector : -0.15804082E-01.
 Largest element of DIIS residual   : -0.15804082E-01.
 Iteration Nr.   1 required (CPU/WALL):                0.12/       0.25 seconds.
 >>>>>>>>>>>>>>>>>>>>>>>>>>>>>>>>>>>>>>>>>>>>>>>>>>>>>>>>>>>>>>>>>>>>>>>>>>>>>>>
 Iteration Nr.   2 started:
 Generation of Intermediates required (CPU/WALL):      0.03/       0.07 seconds.
 Transformation of t(ab,ij) amplitudes required    0.0 seconds.
 Contraction of t(mu nu,ij) with AO integrals required    0.1 seconds.
 Backtransformation of t(mu nu,ij) increments required    0.0 seconds.
 Construction of Hbar required (CPU/WALL):             0.08/       0.14 seconds.
   Frozen core orbitals in analytic derivative calculation
 Amplitude changes are:
 -------------------------------------------------------------------
              Spin      RMS          Max.      Max. change for
  Amplitude   Case     Change       Change       i    j    a    b
 -------------------------------------------------------------------
     T1        AA    0.0000208645-0.0013358341    5        12
     T2        AB    0.0000003887-0.0084098634    7    7   52   52
 -------------------------------------------------------------------
 The total correlation energy is -0.347013547659 a.u.
 Convergence information after     2 iterations: 
 Largest element of residual vector : -0.84098634E-02.
 Largest element of DIIS residual   : -0.70799551E-02.
 Iteration Nr.   2 required (CPU/WALL):                0.12/       0.25 seconds.
 >>>>>>>>>>>>>>>>>>>>>>>>>>>>>>>>>>>>>>>>>>>>>>>>>>>>>>>>>>>>>>>>>>>>>>>>>>>>>>>
 Iteration Nr.   3 started:
 Generation of Intermediates required (CPU/WALL):      0.03/       0.07 seconds.
 Transformation of t(ab,ij) amplitudes required    0.0 seconds.
 Contraction of t(mu nu,ij) with AO integrals required    0.1 seconds.
 Backtransformation of t(mu nu,ij) increments required    0.0 seconds.
 Construction of Hbar required (CPU/WALL):             0.08/       0.14 seconds.
   Frozen core orbitals in analytic derivative calculation
 Amplitude changes are:
 -------------------------------------------------------------------
              Spin      RMS          Max.      Max. change for
  Amplitude   Case     Change       Change       i    j    a    b
 -------------------------------------------------------------------
     T1        AA    0.0000243267-0.0018464485    7        53
     T2        AB    0.0000001405-0.0029096115    7    7   52   52
 -------------------------------------------------------------------
 The total correlation energy is -0.346487907219 a.u.
 Convergence information after     3 iterations: 
 Largest element of residual vector : -0.29096115E-02.
 Largest element of DIIS residual   :  0.15219934E-02.
 Iteration Nr.   3 required (CPU/WALL):                0.12/       0.25 seconds.
 >>>>>>>>>>>>>>>>>>>>>>>>>>>>>>>>>>>>>>>>>>>>>>>>>>>>>>>>>>>>>>>>>>>>>>>>>>>>>>>
 Iteration Nr.   4 started:
 Generation of Intermediates required (CPU/WALL):      0.03/       0.07 seconds.
 Transformation of t(ab,ij) amplitudes required    0.0 seconds.
 Contraction of t(mu nu,ij) with AO integrals required    0.1 seconds.
 Backtransformation of t(mu nu,ij) increments required    0.0 seconds.
 Construction of Hbar required (CPU/WALL):             0.08/       0.14 seconds.
   Frozen core orbitals in analytic derivative calculation
 Amplitude changes are:
 -------------------------------------------------------------------
              Spin      RMS          Max.      Max. change for
  Amplitude   Case     Change       Change       i    j    a    b
 -------------------------------------------------------------------
     T1        AA    0.0000030472-0.0002750493    4         8
     T2        AB    0.0000000420-0.0009140836    6    6   36   36
 -------------------------------------------------------------------
 The total correlation energy is -0.348049306721 a.u.
 Convergence information after     4 iterations: 
 Largest element of residual vector : -0.91408357E-03.
 Largest element of DIIS residual   : -0.49190640E-03.
 Iteration Nr.   4 required (CPU/WALL):                0.12/       0.25 seconds.
 >>>>>>>>>>>>>>>>>>>>>>>>>>>>>>>>>>>>>>>>>>>>>>>>>>>>>>>>>>>>>>>>>>>>>>>>>>>>>>>
 Iteration Nr.   5 started:
 Generation of Intermediates required (CPU/WALL):      0.03/       0.07 seconds.
 Transformation of t(ab,ij) amplitudes required    0.0 seconds.
 Contraction of t(mu nu,ij) with AO integrals required    0.1 seconds.
 Backtransformation of t(mu nu,ij) increments required    0.0 seconds.
 Construction of Hbar required (CPU/WALL):             0.08/       0.14 seconds.
   Frozen core orbitals in analytic derivative calculation
 Amplitude changes are:
 -------------------------------------------------------------------
              Spin      RMS          Max.      Max. change for
  Amplitude   Case     Change       Change       i    j    a    b
 -------------------------------------------------------------------
     T1        AA    0.0000023566 0.0003042654    5         8
     T2        AB    0.0000000136-0.0002886658    7    7   52   52
 -------------------------------------------------------------------
 The total correlation energy is -0.348150355443 a.u.
 Convergence information after     5 iterations: 
 Largest element of residual vector :  0.30426540E-03.
 Largest element of DIIS residual   : -0.13753139E-03.
 Iteration Nr.   5 required (CPU/WALL):                0.12/       0.25 seconds.
 Largest T1 amplitudes for spin case AA:
    i       a                 i       a                 i       a    
 -----------------------------------------------------------------------------
 [  6      37    ]-0.01854 [  7      53    ]-0.01854 [  6      40    ] 0.01242
 [  7      56    ] 0.01242 [  5       8    ] 0.01064 [  6      38    ] 0.00920
 [  7      54    ] 0.00920 [  5      11    ]-0.00906 [  7      55    ] 0.00879
 [  6      39    ] 0.00879 [  5      10    ] 0.00725 [  6      45    ] 0.00688
 [  7      61    ] 0.00688 [  7      58    ] 0.00638 [  6      42    ] 0.00638
 -----------------------------------------------------------------------------
 Norm of T1AA vector (      172 symmetry allowed elements):  0.0443649525.
 -----------------------------------------------------------------------------
 Largest T2 amplitudes for spin case AB:
        _       _                 _       _                 _       _
    i   j   a   b             i   j   a   b             i   j   a   b
 -----------------------------------------------------------------------------
 [  6   6  36  36]-0.08535 [  7   7  52  52]-0.08535 [  7   6  52  36]-0.05367
 [  6   7  36  52]-0.05367 [  6   6  38  36]-0.03622 [  6   6  36  38]-0.03622
 [  7   7  54  52]-0.03622 [  7   7  52  54]-0.03622 [  4   4  11  11]-0.03230
 [  6   6  37  37]-0.02843 [  7   7  53  53]-0.02843 [  5   5  15  15]-0.02786
 [  6   6  37  36]-0.02648 [  6   6  36  37]-0.02648 [  7   7  53  52]-0.02648
 -----------------------------------------------------------------------------
 Norm of T2AB vector (    60523 symmetry allowed elements):  0.3261603049.
 -----------------------------------------------------------------------------
 >>>>>>>>>>>>>>>>>>>>>>>>>>>>>>>>>>>>>>>>>>>>>>>>>>>>>>>>>>>>>>>>>>>>>>>>>>>>>>>
 Iteration Nr.   6 started:
 Generation of Intermediates required (CPU/WALL):      0.03/       0.07 seconds.
 Transformation of t(ab,ij) amplitudes required    0.0 seconds.
 Contraction of t(mu nu,ij) with AO integrals required    0.1 seconds.
 Backtransformation of t(mu nu,ij) increments required    0.0 seconds.
 Construction of Hbar required (CPU/WALL):             0.08/       0.14 seconds.
   Frozen core orbitals in analytic derivative calculation
 Amplitude changes are:
 -------------------------------------------------------------------
              Spin      RMS          Max.      Max. change for
  Amplitude   Case     Change       Change       i    j    a    b
 -------------------------------------------------------------------
     T1        AA    0.0000004681 0.0000457229    6        36
     T2        AB    0.0000000031-0.0000666199    7    6   36   52
 -------------------------------------------------------------------
 The total correlation energy is -0.348166583045 a.u.
 Convergence information after     6 iterations: 
 Largest element of residual vector : -0.66619866E-04.
 Largest element of DIIS residual   :  0.39665494E-04.
 Iteration Nr.   6 required (CPU/WALL):                0.12/       0.26 seconds.
 >>>>>>>>>>>>>>>>>>>>>>>>>>>>>>>>>>>>>>>>>>>>>>>>>>>>>>>>>>>>>>>>>>>>>>>>>>>>>>>
 Iteration Nr.   7 started:
 Generation of Intermediates required (CPU/WALL):      0.03/       0.07 seconds.
 Transformation of t(ab,ij) amplitudes required    0.0 seconds.
 Contraction of t(mu nu,ij) with AO integrals required    0.1 seconds.
 Backtransformation of t(mu nu,ij) increments required    0.0 seconds.
 Construction of Hbar required (CPU/WALL):             0.08/       0.14 seconds.
   Frozen core orbitals in analytic derivative calculation
 Amplitude changes are:
 -------------------------------------------------------------------
              Spin      RMS          Max.      Max. change for
  Amplitude   Case     Change       Change       i    j    a    b
 -------------------------------------------------------------------
     T1        AA    0.0000001254 0.0000091734    7        53
     T2        AB    0.0000000009-0.0000182429    7    6   36   52
 -------------------------------------------------------------------
 The total correlation energy is -0.348168332201 a.u.
 Convergence information after     7 iterations: 
 Largest element of residual vector : -0.18242946E-04.
 Largest element of DIIS residual   :  0.11605393E-04.
 Iteration Nr.   7 required (CPU/WALL):                0.12/       0.26 seconds.
 >>>>>>>>>>>>>>>>>>>>>>>>>>>>>>>>>>>>>>>>>>>>>>>>>>>>>>>>>>>>>>>>>>>>>>>>>>>>>>>
 Iteration Nr.   8 started:
 Generation of Intermediates required (CPU/WALL):      0.03/       0.07 seconds.
 Transformation of t(ab,ij) amplitudes required    0.0 seconds.
 Contraction of t(mu nu,ij) with AO integrals required    0.1 seconds.
 Backtransformation of t(mu nu,ij) increments required    0.0 seconds.
 Construction of Hbar required (CPU/WALL):             0.08/       0.14 seconds.
   Frozen core orbitals in analytic derivative calculation
 Amplitude changes are:
 -------------------------------------------------------------------
              Spin      RMS          Max.      Max. change for
  Amplitude   Case     Change       Change       i    j    a    b
 -------------------------------------------------------------------
     T1        AA    0.0000000300 0.0000027075    4         8
     T2        AB    0.0000000002-0.0000046203    5    5    8    8
 -------------------------------------------------------------------
 The total correlation energy is -0.348167950958 a.u.
 Convergence information after     8 iterations: 
 Largest element of residual vector : -0.46202849E-05.
 Largest element of DIIS residual   : -0.35833879E-05.
 Iteration Nr.   8 required (CPU/WALL):                0.12/       0.26 seconds.
 >>>>>>>>>>>>>>>>>>>>>>>>>>>>>>>>>>>>>>>>>>>>>>>>>>>>>>>>>>>>>>>>>>>>>>>>>>>>>>>
 Iteration Nr.   9 started:
 Generation of Intermediates required (CPU/WALL):      0.03/       0.07 seconds.
 Transformation of t(ab,ij) amplitudes required    0.0 seconds.
 Contraction of t(mu nu,ij) with AO integrals required    0.1 seconds.
 Backtransformation of t(mu nu,ij) increments required    0.0 seconds.
 Construction of Hbar required (CPU/WALL):             0.08/       0.14 seconds.
   Frozen core orbitals in analytic derivative calculation
 Amplitude changes are:
 -------------------------------------------------------------------
              Spin      RMS          Max.      Max. change for
  Amplitude   Case     Change       Change       i    j    a    b
 -------------------------------------------------------------------
     T1        AA    0.0000000088 0.0000006086    5        11
     T2        AB    0.0000000001 0.0000014747    5    5    8    8
 -------------------------------------------------------------------
 The total correlation energy is -0.348168420149 a.u.
 Convergence information after     9 iterations: 
 Largest element of residual vector :  0.14747437E-05.
 Largest element of DIIS residual   : -0.93010541E-06.
 Iteration Nr.   9 required (CPU/WALL):                0.12/       0.26 seconds.
 >>>>>>>>>>>>>>>>>>>>>>>>>>>>>>>>>>>>>>>>>>>>>>>>>>>>>>>>>>>>>>>>>>>>>>>>>>>>>>>
 Iteration Nr.  10 started:
 Generation of Intermediates required (CPU/WALL):      0.03/       0.07 seconds.
 Transformation of t(ab,ij) amplitudes required    0.0 seconds.
 Contraction of t(mu nu,ij) with AO integrals required    0.1 seconds.
 Backtransformation of t(mu nu,ij) increments required    0.0 seconds.
 Construction of Hbar required (CPU/WALL):             0.08/       0.15 seconds.
   Frozen core orbitals in analytic derivative calculation
 Amplitude changes are:
 -------------------------------------------------------------------
              Spin      RMS          Max.      Max. change for
  Amplitude   Case     Change       Change       i    j    a    b
 -------------------------------------------------------------------
     T1        AA    0.0000000037-0.0000003061    6        36
     T2        AB    0.0000000000-0.0000003513    6    6   36   36
 -------------------------------------------------------------------
 The total correlation energy is -0.348168551745 a.u.
 Convergence information after    10 iterations: 
 Largest element of residual vector : -0.35127986E-06.
 Largest element of DIIS residual   : -0.39620044E-06.
 Iteration Nr.  10 required (CPU/WALL):                0.12/       0.26 seconds.
 Largest T1 amplitudes for spin case AA:
    i       a                 i       a                 i       a    
 -----------------------------------------------------------------------------
 [  7      53    ]-0.01851 [  6      37    ]-0.01851 [  7      56    ] 0.01241
 [  6      40    ] 0.01241 [  5       8    ] 0.01065 [  6      38    ] 0.00920
 [  7      54    ] 0.00920 [  5      11    ]-0.00904 [  7      55    ] 0.00877
 [  6      39    ] 0.00877 [  5      10    ] 0.00723 [  6      45    ] 0.00688
 [  7      61    ] 0.00688 [  6      42    ] 0.00639 [  7      58    ] 0.00639
 -----------------------------------------------------------------------------
 Norm of T1AA vector (      172 symmetry allowed elements):  0.0443068656.
 -----------------------------------------------------------------------------
 Largest T2 amplitudes for spin case AB:
        _       _                 _       _                 _       _
    i   j   a   b             i   j   a   b             i   j   a   b
 -----------------------------------------------------------------------------
 [  6   6  36  36]-0.08543 [  7   7  52  52]-0.08543 [  7   6  52  36]-0.05370
 [  6   7  36  52]-0.05370 [  6   6  38  36]-0.03624 [  6   6  36  38]-0.03624
 [  7   7  54  52]-0.03624 [  7   7  52  54]-0.03624 [  4   4  11  11]-0.03228
 [  6   6  37  37]-0.02843 [  7   7  53  53]-0.02843 [  5   5  15  15]-0.02785
 [  6   6  37  36]-0.02650 [  6   6  36  37]-0.02650 [  7   7  53  52]-0.02650
 -----------------------------------------------------------------------------
 Norm of T2AB vector (    60523 symmetry allowed elements):  0.3262204847.
 -----------------------------------------------------------------------------
 >>>>>>>>>>>>>>>>>>>>>>>>>>>>>>>>>>>>>>>>>>>>>>>>>>>>>>>>>>>>>>>>>>>>>>>>>>>>>>>
 Iteration Nr.  11 started:
 Generation of Intermediates required (CPU/WALL):      0.03/       0.07 seconds.
 Transformation of t(ab,ij) amplitudes required    0.0 seconds.
 Contraction of t(mu nu,ij) with AO integrals required    0.1 seconds.
 Backtransformation of t(mu nu,ij) increments required    0.0 seconds.
 Construction of Hbar required (CPU/WALL):             0.08/       0.14 seconds.
   Frozen core orbitals in analytic derivative calculation
 Amplitude changes are:
 -------------------------------------------------------------------
              Spin      RMS          Max.      Max. change for
  Amplitude   Case     Change       Change       i    j    a    b
 -------------------------------------------------------------------
     T1        AA    0.0000000014-0.0000001331    5         8
     T2        AB    0.0000000000-0.0000002343    7    7   52   52
 -------------------------------------------------------------------
 The total correlation energy is -0.348168644313 a.u.
 Convergence information after    11 iterations: 
 Largest element of residual vector : -0.23426746E-06.
 Largest element of DIIS residual   : -0.18533113E-06.
 Iteration Nr.  11 required (CPU/WALL):                0.12/       0.26 seconds.
 >>>>>>>>>>>>>>>>>>>>>>>>>>>>>>>>>>>>>>>>>>>>>>>>>>>>>>>>>>>>>>>>>>>>>>>>>>>>>>>
 Iteration Nr.  12 started:
 Generation of Intermediates required (CPU/WALL):      0.03/       0.08 seconds.
 Transformation of t(ab,ij) amplitudes required    0.0 seconds.
 Contraction of t(mu nu,ij) with AO integrals required    0.1 seconds.
 Backtransformation of t(mu nu,ij) increments required    0.0 seconds.
 Construction of Hbar required (CPU/WALL):             0.08/       0.14 seconds.
   Frozen core orbitals in analytic derivative calculation
 Amplitude changes are:
 -------------------------------------------------------------------
              Spin      RMS          Max.      Max. change for
  Amplitude   Case     Change       Change       i    j    a    b
 -------------------------------------------------------------------
     T1        AA    0.0000000006-0.0000000524    7        52
     T2        AB    0.0000000000-0.0000001057    7    7   52   52
 -------------------------------------------------------------------
 The total correlation energy is -0.348168694133 a.u.
 Convergence information after    12 iterations: 
 Largest element of residual vector : -0.10565493E-06.
 Largest element of DIIS residual   : -0.61625049E-07.
 Iteration Nr.  12 required (CPU/WALL):                0.12/       0.26 seconds.
 >>>>>>>>>>>>>>>>>>>>>>>>>>>>>>>>>>>>>>>>>>>>>>>>>>>>>>>>>>>>>>>>>>>>>>>>>>>>>>>
 Iteration Nr.  13 started:
 Generation of Intermediates required (CPU/WALL):      0.03/       0.07 seconds.
 Transformation of t(ab,ij) amplitudes required    0.0 seconds.
 Contraction of t(mu nu,ij) with AO integrals required    0.1 seconds.
 Backtransformation of t(mu nu,ij) increments required    0.0 seconds.
 Construction of Hbar required (CPU/WALL):             0.08/       0.14 seconds.
   Frozen core orbitals in analytic derivative calculation
 Amplitude changes are:
 -------------------------------------------------------------------
              Spin      RMS          Max.      Max. change for
  Amplitude   Case     Change       Change       i    j    a    b
 -------------------------------------------------------------------
     T1        AA    0.0000000002 0.0000000166    7        52
     T2        AB    0.0000000000-0.0000000327    6    7   52   36
 -------------------------------------------------------------------
 The total correlation energy is -0.348168713504 a.u.
 Convergence information after    13 iterations: 
 Largest element of residual vector : -0.32663553E-07.
 Largest element of DIIS residual   : -0.23861530E-07.
 Iteration Nr.  13 required (CPU/WALL):                0.12/       0.26 seconds.
 >>>>>>>>>>>>>>>>>>>>>>>>>>>>>>>>>>>>>>>>>>>>>>>>>>>>>>>>>>>>>>>>>>>>>>>>>>>>>>>
 Iteration Nr.  14 started:
 Generation of Intermediates required (CPU/WALL):      0.03/       0.07 seconds.
 Transformation of t(ab,ij) amplitudes required    0.0 seconds.
 Contraction of t(mu nu,ij) with AO integrals required    0.1 seconds.
 Backtransformation of t(mu nu,ij) increments required    0.0 seconds.
 Construction of Hbar required (CPU/WALL):             0.08/       0.14 seconds.
   Frozen core orbitals in analytic derivative calculation
 Amplitude changes are:
 -------------------------------------------------------------------
              Spin      RMS          Max.      Max. change for
  Amplitude   Case     Change       Change       i    j    a    b
 -------------------------------------------------------------------
     T1        AA    0.0000000001 0.0000000043    5        11
     T2        AB    0.0000000000-0.0000000124    7    6   36   52
 -------------------------------------------------------------------
 The total correlation energy is -0.348168717383 a.u.
 Convergence information after    14 iterations: 
 Largest element of residual vector : -0.12357637E-07.
 Largest element of DIIS residual   :  0.12768248E-07.
 Iteration Nr.  14 required (CPU/WALL):                0.12/       0.25 seconds.
 >>>>>>>>>>>>>>>>>>>>>>>>>>>>>>>>>>>>>>>>>>>>>>>>>>>>>>>>>>>>>>>>>>>>>>>>>>>>>>>
 Iteration Nr.  15 started:
 Generation of Intermediates required (CPU/WALL):      0.03/       0.07 seconds.
 Transformation of t(ab,ij) amplitudes required    0.0 seconds.
 Contraction of t(mu nu,ij) with AO integrals required    0.1 seconds.
 Backtransformation of t(mu nu,ij) increments required    0.0 seconds.
 Construction of Hbar required (CPU/WALL):             0.08/       0.14 seconds.
   Frozen core orbitals in analytic derivative calculation
 Amplitude changes are:
 -------------------------------------------------------------------
              Spin      RMS          Max.      Max. change for
  Amplitude   Case     Change       Change       i    j    a    b
 -------------------------------------------------------------------
     T1        AA    0.0000000000 0.0000000023    7        52
     T2        AB    0.0000000000-0.0000000051    5    5    8    8
 -------------------------------------------------------------------
 The total correlation energy is -0.348168718496 a.u.
 Convergence information after    15 iterations: 
 Largest element of residual vector : -0.51393935E-08.
 Largest element of DIIS residual   : -0.26252780E-08.
 Iteration Nr.  15 required (CPU/WALL):                0.12/       0.26 seconds.
 Largest T1 amplitudes for spin case AA:
    i       a                 i       a                 i       a    
 -----------------------------------------------------------------------------
 [  7      53    ]-0.01851 [  6      37    ]-0.01851 [  6      40    ] 0.01241
 [  7      56    ] 0.01241 [  5       8    ] 0.01065 [  6      38    ] 0.00920
 [  7      54    ] 0.00920 [  5      11    ]-0.00904 [  7      55    ] 0.00877
 [  6      39    ] 0.00877 [  5      10    ] 0.00723 [  6      45    ] 0.00688
 [  7      61    ] 0.00688 [  6      42    ] 0.00639 [  7      58    ] 0.00639
 -----------------------------------------------------------------------------
 Norm of T1AA vector (      172 symmetry allowed elements):  0.0443070212.
 -----------------------------------------------------------------------------
 Largest T2 amplitudes for spin case AB:
        _       _                 _       _                 _       _
    i   j   a   b             i   j   a   b             i   j   a   b
 -----------------------------------------------------------------------------
 [  6   6  36  36]-0.08543 [  7   7  52  52]-0.08543 [  7   6  52  36]-0.05370
 [  6   7  36  52]-0.05370 [  6   6  38  36]-0.03624 [  6   6  36  38]-0.03624
 [  7   7  54  52]-0.03624 [  7   7  52  54]-0.03624 [  4   4  11  11]-0.03228
 [  6   6  37  37]-0.02843 [  7   7  53  53]-0.02843 [  5   5  15  15]-0.02785
 [  6   6  37  36]-0.02650 [  6   6  36  37]-0.02650 [  7   7  53  52]-0.02650
 -----------------------------------------------------------------------------
 Norm of T2AB vector (    60523 symmetry allowed elements):  0.3262212027.
 -----------------------------------------------------------------------------
 >>>>>>>>>>>>>>>>>>>>>>>>>>>>>>>>>>>>>>>>>>>>>>>>>>>>>>>>>>>>>>>>>>>>>>>>>>>>>>>
 Iteration Nr.  16 started:
 Generation of Intermediates required (CPU/WALL):      0.03/       0.07 seconds.
 Transformation of t(ab,ij) amplitudes required    0.0 seconds.
 Contraction of t(mu nu,ij) with AO integrals required    0.1 seconds.
 Backtransformation of t(mu nu,ij) increments required    0.0 seconds.
 Construction of Hbar required (CPU/WALL):             0.08/       0.14 seconds.
   Frozen core orbitals in analytic derivative calculation
 Amplitude changes are:
 -------------------------------------------------------------------
              Spin      RMS          Max.      Max. change for
  Amplitude   Case     Change       Change       i    j    a    b
 -------------------------------------------------------------------
     T1        AA    0.0000000000-0.0000000007    5         8
     T2        AB    0.0000000000 0.0000000011    5    5    8    8
 -------------------------------------------------------------------
 The total correlation energy is -0.348168718293 a.u.
 Convergence information after    16 iterations: 
 Largest element of residual vector :  0.11223354E-08.
 Largest element of DIIS residual   : -0.94944373E-09.
 Iteration Nr.  16 required (CPU/WALL):                0.12/       0.26 seconds.
 >>>>>>>>>>>>>>>>>>>>>>>>>>>>>>>>>>>>>>>>>>>>>>>>>>>>>>>>>>>>>>>>>>>>>>>>>>>>>>>
 Iteration Nr.  17 started:
 Generation of Intermediates required (CPU/WALL):      0.03/       0.07 seconds.
[...]
H 2 R24* 3 A324* 1 D1324*                                                       
                                                                                
R12  =        1.160092452852229                                                 
R23  =        1.000131794684314                                                 
A123 =       89.070564140000002                                                 
R24  =        1.066837807708131                                                 
A324 =       90.929435859999998                                                 
D1324=      180.000000000000000                                                 
                                                                                
*CFOUR(CALC=CCSD(T),BASIS=cc-pVTZ,FROZEN_CORE=1                                 
       CONVERGENCE=8                                                            
       MEMORY_SIZE=5000,MEM_UNIT=MB,ABCDTYPE=AOBASIS,CC_PROG=ECC                
       MULTIPLICITY=1,CHARGE=0                                                  
       SCF_CONV=8,CC_CONV=10)                                                   
                                                                                
********************************************************************************
--executable xjoda finished with status     0 in        0.08 seconds (walltime).
 --invoking executable--
/home/orgChemistry/bin/cfour_v21/bin/xvprop
 @GETMEM-I,  Allocated    4768 MB of main memory.
   Property integrals will be calculated.
    --------------------------------------------------------------
                                   Property evaluated at 
    Property type                X             Y             Z
    --------------------------------------------------------------
    Dipole moment               ----          ----          ----  
    Quadrupole moment           ----          ----          ----  
    Octopole moment             ----          ----          ----  
    Relativisitic corr.         ----          ----          ----  
    Second moment            0.0000000     0.0000000     0.0000000
    Electron density         0.0000000     0.0000000    -1.1309621
    Electron density         0.0000000     0.0000000     1.0612949
    Electron density         0.0000000     0.0000000     3.0773262
    Field gradient           0.0000000     0.0000000    -1.1309621
    Field gradient           0.0000000     0.0000000     1.0612949
    Field gradient           0.0000000     0.0000000     3.0773262
    Potential                0.0000000     0.0000000    -1.1309621
    Potential                0.0000000     0.0000000     1.0612949
    Potential                0.0000000     0.0000000     3.0773262
    --------------------------------------------------------------
 @CHECKOUT-I, Total execution time (CPU/WALL):        0.21/       0.35 seconds.
--executable xvprop finished with status     0 in        0.44 seconds (walltime).
 --invoking executable--
/home/orgChemistry/bin/cfour_v21/bin/xprops
  occupation vector                      5
  @DRVPRP-I, Properties computed from the SCF density matrix follow.
   Components of electric dipole moment 
        X =    0.0000000000   Y =    0.0000000000   Z =    1.2829612716
   Components of second moment 
       XX =    8.8586036564  YY =    8.8586036564  ZZ =   31.9454213468
       XY =    0.0000000000  XZ =    0.0000000000  YZ =    0.0000000000
   Components of electric quadrupole moment 
       XX =   -1.0473637167  YY =   -1.0473637167  ZZ =    2.0947274334
       XY =    0.0000000000  XZ =    0.0000000000  YZ =    0.0000000000
   Components of electric octopole moment 
      XXX =    0.0000000000 YYY =   -0.0000000000 ZZZ =   10.3848803346
      XXY =   -0.0000000000 XXZ =   -5.1924401673 XYY =    0.0000000000
      YYZ =   -5.1924401673 XZZ =    0.0000000000 YZZ =    0.0000000000
      XYZ =    0.0000000000
  Relativistic correction to the energy 
      Darwin =    0.1766537128 p**4   =   -0.2203354816 Total  =   -0.0436817689
   Charge densities at atomic centers 
          Z-matrix                               Charge
           center                               Density
              1                            197.5496256125
              2                            121.4421028516
              4                              0.3958336552
   Electric field gradient at atomic centers 
                             Z-matrix center   1:
  Atomic charge is                      7
       XX =    0.5841825858  YY =    0.5841825858  ZZ =   -1.1683651716
       XY =    0.0000000000  XZ =    0.0000000000  YZ =    0.0000000000
                          In kHz, Mass number  14
                          CHIxx =      2805.64160
                          CHIyy =      2805.64160
                          CHIzz =     -5611.28321
                          CHIxy =         0.00000
                          CHIxz =         0.00000
                          CHIyz =         0.00000
                             Z-matrix center   2:
  Atomic charge is                      6
       XX =    0.2439222513  YY =    0.2439222513  ZZ =   -0.4878445025
       XY =    0.0000000000  XZ =    0.0000000000  YZ =    0.0000000000
                             Z-matrix center   4:
  Atomic charge is                      1
       XX =   -0.1603476964  YY =   -0.1603476964  ZZ =    0.3206953928
       XY =    0.0000000000  XZ =    0.0000000000  YZ =    0.0000000000
                          In kHz, Mass number   2
                          CHIxx =      -107.75352
                          CHIyy =      -107.75352
                          CHIzz =       215.50703
                          CHIxy =         0.00000
                          CHIxz =         0.00000
                          CHIyz =         0.00000
   Electrostatic potential at atomic centers 
          Z-matrix                             Potential
           center                               [<1/r>]
              1                            -18.3420647753
              2                            -14.6850648949
              4                             -0.9607988957
  @DRVPRP-I, Properties computed from the correlated density matrix follow.
   Components of electric dipole moment 
        X =    0.0000000000   Y =    0.0000000000   Z =    1.1567119795
   Components of second moment 
       XX =    8.7100218226  YY =    8.7100218226  ZZ =   32.2155625327
       XY =    0.0000000000  XZ =    0.0000000000  YZ =    0.0000000000
   Components of electric quadrupole moment 
       XX =   -0.8380022069  YY =   -0.8380022069  ZZ =    1.6760044138
       XY =    0.0000000000  XZ =    0.0000000000  YZ =    0.0000000000
   Components of electric octopole moment 
      XXX =    0.0000000000 YYY =   -0.0000000000 ZZZ =    9.9735922575
      XXY =   -0.0000000000 XXZ =   -4.9867961288 XYY =    0.0000000000
      YYZ =   -4.9867961288 XZZ =    0.0000000000 YZZ =    0.0000000000
      XYZ =    0.0000000000
  Relativistic correction to the energy 
      Darwin =    0.1766764925 p**4   =   -0.2205111014 Total  =   -0.0438346089
   Charge densities at atomic centers 
          Z-matrix                               Charge
           center                               Density
              1                            197.5647466533
              2                            121.4687871946
              4                              0.4022124101
   Electric field gradient at atomic centers 
                             Z-matrix center   1:
  Atomic charge is                      7
       XX =    0.4799563745  YY =    0.4799563745  ZZ =   -0.9599127488
       XY =    0.0000000000  XZ =    0.0000000000  YZ =    0.0000000000
                          In kHz, Mass number  14
                          CHIxx =      2305.07654
                          CHIyy =      2305.07654
                          CHIzz =     -4610.15307
                          CHIxy =         0.00000
                          CHIxz =         0.00000
                          CHIyz =         0.00000
                             Z-matrix center   2:
  Atomic charge is                      6
       XX =    0.1800041055  YY =    0.1800041055  ZZ =   -0.3600082110
       XY =    0.0000000000  XZ =    0.0000000000  YZ =    0.0000000000
                             Z-matrix center   4:
  Atomic charge is                      1
       XX =   -0.1628121648  YY =   -0.1628121648  ZZ =    0.3256243296
       XY =    0.0000000000  XZ =    0.0000000000  YZ =    0.0000000000
                          In kHz, Mass number   2
                          CHIxx =      -109.40964
                          CHIyy =      -109.40964
                          CHIzz =       218.81927
                          CHIxy =         0.00000
                          CHIxz =         0.00000
                          CHIyz =         0.00000
   Electrostatic potential at atomic centers 
          Z-matrix                             Potential
           center                               [<1/r>]
              1                            -18.3778625631
              2                            -14.7273734069
              4                             -0.9761612522
 
  Mulliken population analysis of SCF density.
   Total density is analyzed.
 
  Population analysis by orbitals.
 -------------------------------------------------------
     Z-matrix
      Center          Function          Population
 -------------------------------------------------------
         1                S              1.99871580
         1                S              1.79668122
         1                S             -0.00379149
         1                S             -0.15901212
         1                P              1.07202970
         1                P             -0.01597298
         1                P             -0.02286325
         1                P              1.07202970
         1                P             -0.01597298
         1                P             -0.02286325
         1                P              1.52854895
         1                P             -0.07707900
         1                P             -0.08476134
         1                D              0.00091268
         1                D              0.00159472
         1                D              0.00000000
         1                D              0.00000000
         1                D              0.00344118
         1                D              0.01879062
         1                D              0.00091268
         1                D              0.00159472
         1                D              0.00344118
         1                D              0.01879062
         1                D              0.00365073
         1                D              0.00637888
         1                F              0.00019879
         1                F              0.00006626
         1                F              0.00027979
         1                F              0.00006626
         1                F              0.00000000
         1                F              0.00106019
         1                F              0.00019879
         1                F              0.00027979
         1                F              0.00106019
         1                F              0.00037306
         2                S              1.99674344
         2                S              1.46897129
         2                S             -0.01200185
         2                S             -0.18326518
         2                P              0.96915283
         2                P             -0.01854658
         2                P             -0.04624358
         2                P              0.96915283
         2                P             -0.01854658
         2                P             -0.04624358
         2                P              1.31184916
         2                P             -0.24756376
         2                P             -0.17032865
         2                D              0.00198532
         2                D              0.00378182
         2                D              0.00000000
         2                D              0.00000000
         2                D              0.00656331
         2                D              0.02054162
         2                D              0.00198532
         2                D              0.00378182
         2                D              0.00656331
         2                D              0.02054162
         2                D              0.00794126
         2                D              0.01512727
         2                F              0.00078206
         2                F              0.00026069
         2                F              0.00051524
         2                F              0.00026069
         2                F              0.00000000
         2                F              0.00417097
         2                F              0.00078206
         2                F              0.00051524
         2                F              0.00417097
         2                F              0.00068699
         4                S              1.36225891
         4                S             -0.23881691
         4                S             -0.35260807
         4                P              0.00060255
         4                P              0.00601523
         4                P              0.00060255
         4                P              0.00601523
         4                P              0.00898396
         4                P              0.00303781
         4                D              0.00019009
         4                D              0.00000000
         4                D             -0.00004960
         4                D              0.00019009
         4                D             -0.00004960
         4                D              0.00076035
 -------------------------------------------------------
  Population analysis by atoms (atomic charges).
 -------------------------------------------------------
     Z-matrix
      Center          Function          Population
 -------------------------------------------------------
         1                               7.12878008
         2                               6.07408733
         4                               0.79713259
 -------------------------------------------------------
 
  Mulliken population analysis of CCSD(T) density.
   Total density is analyzed.
 
  Population analysis by orbitals.
 -------------------------------------------------------
     Z-matrix
      Center          Function          Population
 -------------------------------------------------------
         1                S              1.99788866
         1                S              1.77890155
         1                S              0.00412196
         1                S             -0.19326769
         1                P              1.10340979
         1                P             -0.02646865
         1                P             -0.05213740
         1                P              1.10340979
         1                P             -0.02646865
         1                P             -0.05213740
         1                P              1.49873256
         1                P             -0.08419793
         1                P             -0.05952660
         1                D              0.00204557
         1                D              0.00412846
         1                D              0.00165727
         1                D              0.00394358
         1                D              0.00513093
         1                D              0.01884635
         1                D              0.00204557
         1                D              0.00412846
         1                D              0.00513093
         1                D              0.01884635
         1                D              0.00486773
         1                D              0.00862669
         1                F              0.00032447
         1                F              0.00031195
         1                F              0.00067060
         1                F              0.00031195
         1                F              0.00045778
         1                F              0.00132290
         1                F              0.00032447
         1                F              0.00067060
         1                F              0.00132290
         1                F              0.00058895
         2                S              1.99605395
         2                S              1.46234106
         2                S             -0.00372083
         2                S             -0.17808411
         2                P              1.01014735
         2                P             -0.02814053
         2                P             -0.06399080
         2                P              1.01014735
         2                P             -0.02814053
         2                P             -0.06399080
         2                P              1.28802981
         2                P             -0.25773298
         2                P             -0.14643736
         2                D              0.00317094
         2                D              0.00586121
         2                D              0.00176367
         2                D              0.00335455
         2                D              0.00776291
         2                D              0.01604839
         2                D              0.00317094
         2                D              0.00586121
         2                D              0.00776291
         2                D              0.01604839
         2                D              0.00915644
         2                D              0.01673575
         2                F              0.00081765
         2                F              0.00045364
         2                F              0.00096513
         2                F              0.00045364
         2                F              0.00055825
         2                F              0.00399863
         2                F              0.00081765
         2                F              0.00096513
         2                F              0.00399863
         2                F              0.00091467
         4                S              1.36588855
         4                S             -0.24070214
         4                S             -0.33885166
         4                P              0.00129782
         4                P              0.00782928
         4                P              0.00129782
         4                P              0.00782928
         4                P              0.00877481
         4                P             -0.00031127
         4                D              0.00023982
         4                D              0.00008014
         4                D              0.00025119
         4                D              0.00023982
         4                D              0.00025119
         4                D              0.00079899
 -------------------------------------------------------
  Population analysis by atoms (atomic charges).
 -------------------------------------------------------
     Z-matrix
      Center          Function          Population
 -------------------------------------------------------
         1                               7.07796445
         2                               6.10712190
         4                               0.81491365
 -------------------------------------------------------
 @CHECKOUT-I, Total execution time (CPU/WALL):        0.03/       0.13 seconds.
--executable xprops finished with status     0 in        0.21 seconds (walltime).
  The final electronic energy is       -93.275218563791782 a.u. 
  This computation required                          171.70 seconds (walltime).

real	2m51.772s
user	0m48.532s
sys	0m33.451s
