 --invoking executable--
/home/orgChemistry/bin/cfour_v21/bin/xjoda


   *************************************************************************
         <<<     CCCCCC     CCCCCC   |||     CCCCCC     CCCCCC   >>>
       <<<      CCC        CCC       |||    CCC        CCC         >>>
      <<<      CCC        CCC        |||   CCC        CCC            >>>
    <<<        CCC        CCC        |||   CCC        CCC              >>>
      <<<      CCC        CCC        |||   CCC        CCC            >>>
       <<<      CCC        CCC       |||    CCC        CCC         >>>
         <<<     CCCCCC     CCCCCC   |||     CCCCCC     CCCCCC   >>>
   *************************************************************************

     ****************************************************************
     * CFOUR Coupled-Cluster techniques for Computational Chemistry *
     ****************************************************************
 

   Department of Chemistry                Institut fuer Physikalische Chemie
   University of Florida                  Universitaet Mainz
   Gainesville, FL 32611, USA             D-55099 Mainz, Germany

   Department of Chemistry                Fakultaet fuer Chemie und Biowiss.
   Johns Hopkins University               Karlsruher Institut fuer Technologie
   Baltimore, MD 21218, USA               D-76131 Karlsruhe, Germany

   Department of Chemistry                Department of Physical Chemistry
   Southern Methodist University          Eotvos Lorand University
   Dallas, TX 75275, USA                  H-1053 Budapest, Hungary

 
                       Version 2.1
 
                     node2-052                                         
                     Fri Jan 29 00:57:01 CET 2021                      
                     integer*8 version is running
 
********************************************************************************
*                          Input from ZMAT file                                *
********************************************************************************
title                                                                           
C                                                                               
N 1 R12                                                                         
O 1 R13 2 A213                                                                  
H 1 R14 3 A314 2 D2314                                                          
H 1 R15 2 A215 3 D3215                                                          
H 2 R26 1 A126 3 D3126                                                          
                                                                                
R12  =        1.441013219952494                                                 
R13  =        1.397819012603235                                                 
A213 =       64.085646053408411                                                 
R14  =        1.084922006586772                                                 
A314 =      116.264212973499099                                                 
D2314=     -106.869414218020779                                                 
R15  =        1.086881540326585                                                 
A215 =      119.194325158686340                                                 
D3215=     -106.561643881139048                                                 
R26  =        1.023036655186063                                                 
A126 =      106.198160524058665                                                 
D3126=       93.772899082289200                                                 
                                                                                
*CFOUR(CALC=CCSD(T),BASIS=cc-pVTZ,FROZEN_CORE=1                                 
       VIB=EXACT                                                                
       MEMORY_SIZE=5000,MEM_UNIT=MB,ABCDTYPE=AOBASIS,CC_PROG=ECC                
       MULTIPLICITY=1,CHARGE=0                                                  
       SCF_CONV=8,CC_CONV=10)                                                   
                                                                                
********************************************************************************
    -------------------------------------------------------------------
                    CFOUR Control Parameters 
    -------------------------------------------------------------------
        External           Internal           Value            Units
          Name               Name
    -------------------------------------------------------------------
       ABCDTYPE             IABCDT         AOBASIS     [  2]    ***   
       ANHARMONIC           IANHAR         OFF         [  0]    ***   
       ANH_ALGORIT          IANALG         STANDARD    [  0]    ***   
       ANH_DERIVAT          IANDER         SECOND      [  1]    ***   
       ANH_MODE             ANHMOD         VIBRATION   [  0]    ***   
       ANH_STEPSIZ          ICUBST             50000          x 10-6  
       ANH_SYMMETR          IANHSM         ABELIAN     [  0]    ***   
       AO_LADDERS           IAOLAD         SINGLEPASS  [  1]    ***   
       AV_SCF               IAVSCF         OFF         [  0]    ***   
       BASIS                IBASIS         PVTZ        [ 14]    ***   
       BOTHVECTORS          BOTHVC         OFF         [  0]    ***   
       BOX_POTENT           IPIAB          OFF         [  0]    ***   
       BREIT                IBREIT         OFF         [  0]    ***   
       BRUCK_CONV           IBRTOL          10D-  4             ***   
       BRUECKNER            IBRKNR         OFF         [  0]    ***   
       BUFFERSIZE           IBUFFS              4096            ***   
       CACHE_RECS           ICHREC             10               ***   
       CALCLEVEL            ICLLVL         CCSD(T)     [ 22]    ***   
       CCORBOPT             ICCORB         OFF         [  0]  x 0.01  
       CC_CONV              ICCCNV          10D- 10             ***   
       CC_EXPORDER          ICCEOR              5               ***   
       CC_EXTRAPOL          ICCEXT         DIIS        [  1]    ***   
       CC_GUESS             ICCGES         MP2         [  0]    ***   
       CC_MAXCYC            ICCCYC            100              cycles 
       CC_PROGRAM           ICCPRO         ECC         [  1]    ***   
       CHARGE               ICHRGE              0               ***   
       CHOLESKY             ICHOLE         OFF         [  0]    ***   
       CIS_CONV             ICISTL              5               ***   
       COMM_SIZE            IPSIZE            ***               ***   
       CONSTANT             ICONST         OLD         [  1]    ***   
       CONTINUUM            ICONTU         NONE        [  0]    ***   
       CONTRACTION          ICNTYP         GENERAL     [  1]    ***   
       COORDINATES          ICOORD         INTERNAL    [  0]    ***   
       CPHF_CONVER          ICPHFT          10D- 16             ***   
       CPHF_MAXCYC          ICPHFC             64              cycles 
       CUBIC                ICUBIC         OFF         [  0]    ***   
       CURVILINEAR          ICURVY         OFF         [  0]    ***   
       DBOC                 IDBOC          OFF         [  0]    ***   
       DCT                  IDCT           OFF         [  0]    ***   
       DERIV_LEV            IDRLVL         SECOND      [  2]    ***   
       DEVMEM_SIZE          IDVMEM         *********           MByte  
       DIAG_MRCC            IEOMST          10D-  0             ***   
       DIFF_TYPE            IDIFTY         RELAXED     [  0]    ***   
       DIRECT               IDIRCT         OFF         [  0]    ***   
       DROPMO               IDRPMO      NONE         
       ECP                  IECP           OFF         [  0]    ***   
       EIGENVECTOR          IVEC                1               ***   
       EL_ANHARM            IELANH         OFF         [  0]    ***   
       EOMFOLLOW            IEOMSR         ENERGY      [  0]    ***   
       EOMIP                IEOMIP         OFF         [  0]    ***   
       EOMLEVEL             HBARFM         SAME        [  0]    ***   
       EOM_MRCC             IMRCCE         NEW         [  1]    ***   
       EOM_NONIT            EOMNON         OFF         [  0]    ***   
       EOM_NSING            IEOMSI          10D-  0             ***   
       EOM_NSTATES          IMRCCD         DAVIDSON    [  0]    ***   
       EOM_NTRIP            IEOMTR          10D-  0             ***   
       EOM_ORDER            IEXORD         ENERGY      [  0]    ***   
       EOM_PROPSTA          IEOMST              0               ***   
       ESTATE_CONV          IEXTOL          10D-  5             ***   
       ESTATE_DIAG          IEXDIG         ITERATIVE   [  0]    ***   
       ESTATE_LOCK          IESLOC         ON          [  1]    ***   
       ESTATE_MAXC          IEXMXC             40               ***   
       ESTATE_PROP          IEXPRP         OFF         [  0]    ***   
       EVAL_HESS            IRECAL              0            # of cyc.
       EXCITATION           IEXCIT              0               ***   
       EXCITE               IEXCIT         NONE        [  0]    ***   
       EXTERN_POT           IEXPOT         OFF         [  0]    ***   
       FCGRADNEW            IFCGNW         OFF         [  0]    ***   
       FC_FIELD             IFINFC              0             x 10-6  
       FD_CALTYPE           IFDCAL         GRADONLY    [  0]    ***   
       FD_PROJECT           IFDPRJ         OFF         [  1]    ***   
       FD_STEPSIZE          IDISFD              0            10-4 bohr
       FD_USEGROUP          IFDGRP         FULL        [  0]    ***   
       FILE_RECSIZ          IFLREC              4096           words  
       FINITE_PERT          IFIPER              0             x 10-6  
       FIXGEOM              IFIXGM         OFF         [  0]    ***   
       FOCK                 IFOCK          AO          [  1]    ***   
       FREQ_ALGORI          IVIALG         STANDARD    [  0]    ***   
       FROZEN_CORE          IFROCO         ON          [  1]    ***   
       GAMMA_ABCD           IGABCD         DIRECT      [  1]    ***   
       GAMMA_ABCI           IGABCI         STORE       [  0]    ***   
       GENBAS_1             IGNBS1              0               ***   
       GENBAS_2             IGNBS2              0               ***   
       GENBAS_3             IGNBS3              0               ***   
       GENBAS_4             IGNBS4              0               ***   
       GEO_CONV             ICONTL              5              H/bohr 
       GEO_MAXCYC           IOPTCY             50               ***   
       GEO_MAXSTEP          IMXSTP            300            millibohr
       GEO_METHOD           INR            SINGLE_POINT[  5]    ***   
       GIAO                 IGIAO          OFF         [  1]    ***   
       GIMIC                IGIMIC         OFF         [  0]    ***   
       GRID                 IGRID          OFF         [  0]    ***   
       GRID_ALGO            IGALGO         SERIAL      [  0]    ***   
       GUESS                IGUESS         MOREAD      [  0]    ***   
       HBAR                 IHBAR          OFF         [  0]    ***   
       HESS_TYPE            IHESTP         SCF         [  0]    ***   
       HF2_FILE             IHF2Fl         USE         [  1]    ***   
       HFSTABILITY          ISTABL         OFF         [  0]    ***   
       INCORE               INCORE         OFF         [  0]    ***   
       INPUT_MRCC           IMRCC          ON          [  1]    ***   
       INTEGRALS            INTTYP         VMOL        [  1]    ***   
       JODA_PRINT           IJPRNT              0               ***   
       KEYWORD_OUT          IDMPKW         NO          [  0]    ***   
       LINDEP_TOL           ILINDP              8               ***   
       LINEQ_CONV           IZTACN          10D-  7           cycles  
       LINEQ_EXPOR          ILMAXD              5               ***   
       LINEQ_MAXCY          ILMAXC            100               ***   
       LINEQ_TYPE           ILTYPE         DIIS        [  1]    ***   
       LOCK_ORBOCC          ILOCOC         OFF         [  0]    ***   
       MEMORY_SIZE          IMEMSZ         625000000           words  
       MEM_UNIT             IMEMU          MB          [  2]    ***   
       MRCC                 IMRCCC         OFF         [  0]    ***   
       MULTIPLICTY          IMULTP              1               ***   
       NACOUPLING           IVCOUP         OFF         [  0]    ***   
       NEGEVAL              IDIE           ABORT       [  0]    ***   
       NEWNORM              INEWNO         OFF         [  0]    ***   
       NON-HF               INONHF         OFF         [  0]    ***   
       NTOP_TAMP            ITOPT2             15               ***   
       NUC_MODEL            INUCMO         POINT       [  0]    ***   
       OCCUPATION           IOCCU   ESTIMATED BY SCF 
       OPEN-SHELL           IOPEN          SPIN-ORBITAL[  0]    ***   
       OPTVIB               IOPTVB         OFF         [  0]    ***   
       ORBITALS             IORBTP         STANDARD    [  0]    ***   
       PARALLEL             IPARAL         ON          [  1]    ***   
       PARA_INT             IPINTS         ON          [  1]    ***   
       PARA_PRINT           IPPRIN              0               ***   
       PERT_ORB             IPTORB         CANONICAL   [  1]    ***   
       POINTS               IGRDFD              0               ***   
       PRINT                IPRNT               0               ***   
       PROPS                IPROPS         OFF         [  0]    ***   
       PROP_INTEGR          IINTYP         INTERNAL    [  0]    ***   
       PSI                  IPSI           OFF         [  0]    ***   
       QC_ALG               IQCALG         FLM         [  0]    ***   
       QC_LINALG            IQCLIN         TRIDIAG     [  2]    ***   
       QC_MAXCYC            IQCMAX          10D-100           cycles  
       QC_MAXSCFCY          IQCMSC          10D- 15           cycles  
       QC_RTRUST            IQCRTR          10D-  0           x 10-3  
       QC_SKIPSCF           IQCSKI         OFF         [  0]    ***   
       QC_START             IQCSTA          10D-  1             ***   
       QRHFGUESS            IQGUES         OFF         [  0]    ***   
       QUARTIC              IQUART         OFF         [  0]    ***   
       RAMAN_INT            IRAMIN         OFF         [  0]    ***   
       RAMAN_ORB            IRAMRE         UNRELAXED   [  0]    ***   
       RDO                  IRDOFM         ON          [  1]    ***   
       REDUCE_REPR          REDREP         Ir          [  0]    ***   
       REFERENCE            IREFNC         RHF         [  0]    ***   
       RELATIVIST           IRELAT         OFF         [  0]    ***   
       RELAX_DENS           IRDENS         ON          [  1]    ***   
       RESET_FLAGS          IRESET         OFF         [  0]    ***   
       RESTART_CC           ICCRES         OFF         [  0]    ***   
       ROT_EVEC             ROTVEC              0               ***   
       SAVE_INTS            ISVINT         OFF         [  0]    ***   
       SCALE_ON             ISTCRT              0               ***   
       SCF_CONV             ISCFCV          10D-  8             ***   
       SCF_DAMPING          IDAMP               0             x 10-3  
       SCF_EXPORDE          IRPPOR              6               ***   
       SCF_EXPSTAR          IRPPLS              8               ***   
       SCF_EXTRAPO          IRPP           ON          [  1]    ***   
       SCF_MAXCYC           ISCFCY            150              cycles 
       SCF_NOSTOP           ISCFST         OFF         [  0]    ***   
       SCF_PRINT            ISCFPR              0               ***   
       SCF_PROG             ISCFPR         SCF         [  0]    ***   
       SD_FIELD             IFINSD              0             x 10-6  
       SOPERT               IPERSO         OFF         [  0]    ***   
       SPHERICAL            IDFGHI         ON          [  1]    ***   
       SPINORBIT            ISOCAL         OFF         [  0]    ***   
       SPINROTATIO          ISRCON         OFF         [  0]    ***   
       SPIN_FLIP            ISPFLP         OFF         [  0]    ***   
       SPIN_ORBIT           ISPORB         OFF         [  0]    ***   
       SPIN_SCAL            ISCSMP         OFF         [  0]    ***   
       STEEPSCALE           ISTPSC              1000          x 10-3  
       SUBGROUP             ISUBGP         DEFAULT     [  0]    ***   
       SUBGRPAXIS           ISBXYZ         X           [  0]    ***   
       SYMMETRY             ISYM           ON          [  0]    ***   
       SYM_CHECK            ISYMCK         OVERRIDE    [  1]    ***   
       T3_EXTRAPOL          IT3EXT         OFF         [  0]    ***   
       T4_EXTRAPOL          IT4EXP         OFF         [  0]    ***   
       TAMP_SUM             IEVERY              5               ***   
       TESTSUITE            ITESTS         OFF         [  0]    ***   
       THERMOCH             ITHERM         ON          [  1]    ***   
       TOL_CHOLESK          ITOLCH          10D-  4             ***   
       TRANGRAD             IRESRM         OFF         [  0]    ***   
       TRANS_INV            ITRAIN         USE         [  0]    ***   
       TREAT_PERT           ITREAT         SIMULTANEOUS[  0]    ***   
       TRIP_ALGORI          ITRALG         NORMAL      [  0]    ***   
       UIJ_THRESHO          IUIJTH              1               ***   
       UNITS                IUNITS         ANGSTROM    [  0]    ***   
       UNOS                 IUNOS          OFF         [  0]    ***   
       UPDATE_HESS          IHUPDT         ON          [  1]    ***   
       VIBPHASE             ISETPH         STANDARD    [  0]    ***   
       VIBRATION            IVIB           ANALYTIC    [  1]    ***   
       VIB_ALGORIT          IGEALG         STANDARD    [  0]    ***   
       VNATORB              IVNORB         OFF         [  0]    ***   
       VTRAN                IVTRAN         PARTIAL     [  2]    ***   
       XFIELD               IXEFLD              0             x 10-6  
       XFORM_TOL            IXFTOL          10D- 11             ***   
       YFIELD               IYEFLD              0             x 10-6  
       ZFIELD               IZEFLD              0             x 10-6  
       ZSCALE_EXP           IZEXPS         OFF         [  0]    ***   
    -------------------------------------------------------------------
   6 entries found in Z-matrix 
   Job Title : title                                                                           
   There are 12 unique internal coordinates.
   Of these,  0 will be optimized.
   User supplied Z-matrix: 
--------------------------------------------------------------------------------
       SYMBOL    BOND      LENGTH    ANGLE     ANGLE     DIHED     ANGLE
                  TO      (ANGST)    WRT      (DEG)      WRT      (DEG)
--------------------------------------------------------------------------------
        C    
        N          1         R12  
        O          1         R13        2        A213 
        H          1         R14        3        A314       2        D2314
        H          1         R15        2        A215       3        D3215
        H          2         R26        1        A126       3        D3126
                  *Initial values for internal coordinates* 
                      Name             Value
                        R12             1.4410132200
                        R13             1.3978190126
                        A213           64.0856460534
                        R14             1.0849220066
                        A314          116.2642129735
                        D2314        -106.8694142180
                        R15             1.0868815403
                        A215          119.1943251587
                        D3215        -106.5616438811
                        R26             1.0230366552
                        A126          106.1981605241
                        D3126          93.7728990823
--------------------------------------------------------------------------------
   Rotational constants (in cm-1): 
          0.4850589073             0.8086330522             0.8842623833
   Rotational constants (in MHz): 
      14541.7022468042         24242.2124300488         26509.5230540042
********************************************************************************
   The full molecular point group is C1  .
   The largest Abelian subgroup of the full molecular point group is C1  .
   The computational point group is C1  .
********************************************************************************
--------------------------------------------------------------------------------
   Analysis of internal coordinates specified by Z-matrix 
--------------------------------------------------------------------------------
   *The nuclear repulsion energy is   74.590697649250529 a.u.
   *There are  12 degrees of freedom within the tot. symm. molecular subspace.
   *Z-matrix requests optimization of   0 coordinates.
   *The optimization is constrained.
   *The following  12 parameters can have non-zero 
    derivatives within the totally symmetric subspace:
             D3215[ 9]  D2314[ 6]  A314 [ 5]  D3126[12]  A215 [ 8]  A126 [11]
             R15  [ 7]  R14  [ 4]  R26  [10]  R13  [ 2]  R12  [ 1]  A213 [ 3]
   *The following   0 parameters are to be optimized:

   *The following coordinates must be varied in an  unconstrained optimization.
             D3215[ 9]  D2314[ 6]  A314 [ 5]  D3126[12]  A215 [ 8]  A126 [11]
             R15  [ 7]  R14  [ 4]  R26  [10]  R13  [ 2]  R12  [ 1]  A213 [ 3]
--------------------------------------------------------------------------------


 ----------------------------------------------------------------
         Coordinates used in calculation (QCOMP) 
 ----------------------------------------------------------------
 Z-matrix   Atomic            Coordinates (in bohr)
  Symbol    Number           X              Y              Z
 ----------------------------------------------------------------
     C         6         0.60024596     1.40262650     0.02088878
     N         7        -1.63869924    -0.13736603    -0.15499431
     O         8         0.99365843    -1.20938514     0.00988325
     H         1         1.11176763     2.40437226    -1.69322767
     H         1         1.01762002     2.36571303     1.78633628
     H         1        -2.27783257    -0.36848727     1.65486310
 ----------------------------------------------------------------
 
   Interatomic distance matrix (Angstroms) 
 
                 C             N             O             H             H    
                [ 1]        [ 2]        [ 3]        [ 4]        [ 5]
  C    [ 1]     0.00000
  N    [ 2]     1.44101     0.00000
  O    [ 3]     1.39782     1.50660     0.00000
  H    [ 4]     1.08492     2.14246     2.11497     0.00000
  H    [ 5]     1.08688     2.18763     2.11258     1.84209     0.00000
  H    [ 6]     1.98636     1.02304     1.98817     2.91710     2.26703
 
                 H    
                [ 6]
  H    [ 6]     0.00000
 rotcon2
   Rotational constants (in cm-1): 
          0.8842623833             0.8086330522             0.4850589073
   Rotational constants (in MHz): 
      26509.5230540042         24242.2124300488         14541.7022468042
  There are   3 frozen-core orbitals.
  There are  132 basis functions.
 @CHECKOUT-I, Total execution time (CPU/WALL):        0.11/       1.08 seconds.
--executable xjoda finished with status     0 in        3.50 seconds (walltime).
 --invoking executable--
/home/orgChemistry/bin/cfour_v21/bin/xvmol
 SERIAL VERSION OF MOLECULE STARTED
********************************************************************************
                    INPUT FROM MOL FILE
********************************************************************************
INTGRL        1    0    1    0    0    0    0    0    0                         
         *** CFOUR Program System (Release V0.1) ***                            
title                                                                           
    6    0            0.10E-08              0    0                              
   9999.00      3.00                                                            
          6.00000000    1    4    1    1    1    1                              
C #1   0.600245955362531   1.402626503049798   0.020888779027383                
   10    4                                                                      
   8236.00000000000       5.310000000000000E-004 -1.130000000000000E-004        
  0.000000000000000E+000  0.000000000000000E+000                                
   1235.00000000000       4.108000000000000E-003 -8.780000000000000E-004        
  0.000000000000000E+000  0.000000000000000E+000                                
   280.800000000000       2.108700000000000E-002 -4.540000000000000E-003        
  0.000000000000000E+000  0.000000000000000E+000                                
   79.2700000000000       8.185300000000000E-002 -1.813300000000000E-002        
  0.000000000000000E+000  0.000000000000000E+000                                
   25.5900000000000       0.234817000000000      -5.576000000000000E-002        
  0.000000000000000E+000  0.000000000000000E+000                                
   8.99700000000000       0.434401000000000      -0.126895000000000             
  0.000000000000000E+000  0.000000000000000E+000                                
   3.31900000000000       0.346129000000000      -0.170352000000000             
  0.000000000000000E+000  0.000000000000000E+000                                
  0.905900000000000       3.937800000000000E-002  0.140382000000000             
   1.00000000000000       0.000000000000000E+000                                
  0.364300000000000      -8.983000000000000E-003  0.598684000000000             
  0.000000000000000E+000  0.000000000000000E+000                                
  0.128500000000000       2.385000000000000E-003  0.395389000000000             
  0.000000000000000E+000   1.00000000000000                                     
    5    3                                                                      
   18.7100000000000       1.403100000000000E-002  0.000000000000000E+000        
  0.000000000000000E+000                                                        
   4.13300000000000       8.686600000000000E-002  0.000000000000000E+000        
  0.000000000000000E+000                                                        
   1.20000000000000       0.290216000000000       0.000000000000000E+000        
  0.000000000000000E+000                                                        
  0.382700000000000       0.501008000000000        1.00000000000000             
  0.000000000000000E+000                                                        
  0.120900000000000       0.343406000000000       0.000000000000000E+000        
   1.00000000000000                                                             
    2    2                                                                      
   1.09700000000000        1.00000000000000       0.000000000000000E+000        
  0.318000000000000       0.000000000000000E+000   1.00000000000000             
    1    1                                                                      
  0.761000000000000        1.00000000000000                                     
          7.00000000    1    4    1    1    1    1                              
N #2  -1.638699236213893  -0.137366027953685  -0.154994309265480                
   10    4                                                                      
   11420.0000000000       5.230000000000000E-004 -1.150000000000000E-004        
  0.000000000000000E+000  0.000000000000000E+000                                
   1712.00000000000       4.045000000000000E-003 -8.950000000000000E-004        
  0.000000000000000E+000  0.000000000000000E+000                                
   389.300000000000       2.077500000000000E-002 -4.624000000000000E-003        
  0.000000000000000E+000  0.000000000000000E+000                                
   110.000000000000       8.072699999999999E-002 -1.852800000000000E-002        
  0.000000000000000E+000  0.000000000000000E+000                                
   35.5700000000000       0.233074000000000      -5.733900000000000E-002        
  0.000000000000000E+000  0.000000000000000E+000                                
   12.5400000000000       0.433501000000000      -0.132076000000000             
  0.000000000000000E+000  0.000000000000000E+000                                
   4.64400000000000       0.347472000000000      -0.172510000000000             
  0.000000000000000E+000  0.000000000000000E+000                                
   1.29300000000000       4.126200000000000E-002  0.151814000000000             
   1.00000000000000       0.000000000000000E+000                                
  0.511800000000000      -8.508000000000000E-003  0.599944000000000             
  0.000000000000000E+000  0.000000000000000E+000                                
  0.178700000000000       2.384000000000000E-003  0.387462000000000             
  0.000000000000000E+000   1.00000000000000                                     
    5    3                                                                      
   26.6300000000000       1.467000000000000E-002  0.000000000000000E+000        
  0.000000000000000E+000                                                        
   5.94800000000000       9.176400000000000E-002  0.000000000000000E+000        
  0.000000000000000E+000                                                        
   1.74200000000000       0.298683000000000       0.000000000000000E+000        
  0.000000000000000E+000                                                        
  0.555000000000000       0.498487000000000        1.00000000000000             
  0.000000000000000E+000                                                        
  0.172500000000000       0.337023000000000       0.000000000000000E+000        
   1.00000000000000                                                             
    2    2                                                                      
   1.65400000000000        1.00000000000000       0.000000000000000E+000        
  0.469000000000000       0.000000000000000E+000   1.00000000000000             
    1    1                                                                      
   1.09300000000000        1.00000000000000                                     
          8.00000000    1    4    1    1    1    1                              
O #3   0.993658427450633  -1.209385139882945   0.009883252525509                
   10    4                                                                      
   15330.0000000000       5.080000000000000E-004 -1.150000000000000E-004        
  0.000000000000000E+000  0.000000000000000E+000                                
   2299.00000000000       3.929000000000000E-003 -8.950000000000000E-004        
  0.000000000000000E+000  0.000000000000000E+000                                
   522.400000000000       2.024300000000000E-002 -4.636000000000000E-003        
  0.000000000000000E+000  0.000000000000000E+000                                
   147.300000000000       7.918100000000000E-002 -1.872400000000000E-002        
  0.000000000000000E+000  0.000000000000000E+000                                
   47.5500000000000       0.230687000000000      -5.846300000000000E-002        
  0.000000000000000E+000  0.000000000000000E+000                                
   16.7600000000000       0.433118000000000      -0.136463000000000             
  0.000000000000000E+000  0.000000000000000E+000                                
   6.20700000000000       0.350260000000000      -0.175740000000000             
  0.000000000000000E+000  0.000000000000000E+000                                
   1.75200000000000       4.272800000000000E-002  0.160934000000000             
   1.00000000000000       0.000000000000000E+000                                
  0.688200000000000      -8.154000000000000E-003  0.603418000000000             
  0.000000000000000E+000  0.000000000000000E+000                                
  0.238400000000000       2.381000000000000E-003  0.378765000000000             
  0.000000000000000E+000   1.00000000000000                                     
    5    3                                                                      
   34.4600000000000       1.592800000000000E-002  0.000000000000000E+000        
  0.000000000000000E+000                                                        
   7.74900000000000       9.974000000000000E-002  0.000000000000000E+000        
  0.000000000000000E+000                                                        
   2.28000000000000       0.310492000000000       0.000000000000000E+000        
  0.000000000000000E+000                                                        
  0.715600000000000       0.491026000000000        1.00000000000000             
  0.000000000000000E+000                                                        
  0.214000000000000       0.336337000000000       0.000000000000000E+000        
   1.00000000000000                                                             
    2    2                                                                      
   2.31400000000000        1.00000000000000       0.000000000000000E+000        
  0.645000000000000       0.000000000000000E+000   1.00000000000000             
    1    1                                                                      
   1.42800000000000        1.00000000000000                                     
          1.00000000    1    3    1    1    1                                   
H #4   1.111767632073815   2.404372264619858  -1.693227666697154                
    5    3                                                                      
   33.8700000000000       6.068000000000000E-003  0.000000000000000E+000        
  0.000000000000000E+000                                                        
   5.09500000000000       4.530800000000000E-002  0.000000000000000E+000        
  0.000000000000000E+000                                                        
   1.15900000000000       0.202822000000000       0.000000000000000E+000        
  0.000000000000000E+000                                                        
  0.325800000000000       0.503903000000000        1.00000000000000             
  0.000000000000000E+000                                                        
  0.102700000000000       0.383421000000000       0.000000000000000E+000        
   1.00000000000000                                                             
    2    2                                                                      
   1.40700000000000        1.00000000000000       0.000000000000000E+000        
  0.388000000000000       0.000000000000000E+000   1.00000000000000             
    1    1                                                                      
   1.05700000000000        1.00000000000000                                     
          1.00000000    1    3    1    1    1                                   
H #5   1.017620018049276   2.365713030822260   1.786336281665605                
    5    3                                                                      
   33.8700000000000       6.068000000000000E-003  0.000000000000000E+000        
  0.000000000000000E+000                                                        
   5.09500000000000       4.530800000000000E-002  0.000000000000000E+000        
  0.000000000000000E+000                                                        
   1.15900000000000       0.202822000000000       0.000000000000000E+000        
  0.000000000000000E+000                                                        
  0.325800000000000       0.503903000000000        1.00000000000000             
  0.000000000000000E+000                                                        
  0.102700000000000       0.383421000000000       0.000000000000000E+000        
   1.00000000000000                                                             
    2    2                                                                      
   1.40700000000000        1.00000000000000       0.000000000000000E+000        
  0.388000000000000       0.000000000000000E+000   1.00000000000000             
    1    1                                                                      
   1.05700000000000        1.00000000000000                                     
          1.00000000    1    3    1    1    1                                   
H #6  -2.277832574473757  -0.368487268640780   1.654863098983407                
    5    3                                                                      
   33.8700000000000       6.068000000000000E-003  0.000000000000000E+000        
  0.000000000000000E+000                                                        
   5.09500000000000       4.530800000000000E-002  0.000000000000000E+000        
  0.000000000000000E+000                                                        
   1.15900000000000       0.202822000000000       0.000000000000000E+000        
  0.000000000000000E+000                                                        
  0.325800000000000       0.503903000000000        1.00000000000000             
  0.000000000000000E+000                                                        
  0.102700000000000       0.383421000000000       0.000000000000000E+000        
   1.00000000000000                                                             
    2    2                                                                      
   1.40700000000000        1.00000000000000       0.000000000000000E+000        
  0.388000000000000       0.000000000000000E+000   1.00000000000000             
    1    1                                                                      
   1.05700000000000        1.00000000000000                                     
FINISH                                                                          
 
********************************************************************************
 ONE- AND TWO-ELECTRON INTEGRALS OVER SYMMETRY-ADAPTED AOS ARE CALCULATED.

  SPHERICAL HARMONICS ARE USED.
  
  INTEGRALS LESS THAN  0.10E-13 ARE NEGLECTED.

  NUCLEAR REPULSION ENERGY :   74.5906976493 A.U.
  @MOLECU-I, ONE ELECTRON INTEGRALS (CPU/WALL):        0.05/       0.07 SECONDS.
  @TWOEL-I,   38225697 INTEGRALS OF SYMMETRY TYPE  I I I I
  @TWOEL-I, TOTAL NUMBER OF 2-E INTEGRALS   38225697.
  @MOLECU-I, TWO ELECTRON INTEGRALS (CPU/WALL):       11.80/      12.64 SECONDS.
 @CHECKOUT-I, Total execution time (CPU/WALL):       11.85/      12.75 seconds.

Running with 24 threads/proc

--executable xvmol finished with status     0 in       13.91 seconds (walltime).
 --invoking executable--
/home/orgChemistry/bin/cfour_v21/bin/xvmol2ja
 @GETMEM-I,  Allocated    4768 MB of main memory.
 @CHECKOUT-I, Total execution time (CPU/WALL):        0.01/       0.02 seconds.
--executable xvmol2ja finished with status     0 in        0.11 seconds (walltime).
 --invoking executable--
/home/orgChemistry/bin/cfour_v21/bin/xvscf
  There are  132 functions in the AO basis.

  There are 1 irreducible representations.

       Irrep        # of functions
         1                132


  Parameters for SCF calculation: 
        SCF reference function:  RHF  
  Maximum number of iterations:  150
     Full symmetry point group: C1  
     Computational point group: C1  
        Initial density matrix: MOREAD                 
     SCF convergence tolerance: 10**(- 8)
  DIIS convergence acceleration:  ON
          Latest start for DIIS:   8
                     DIIS order:   6

  Memory information:     925589 words required.
  Fock matrices are constructed from AO integral file.
 @GETMEM-I,  Allocated       7 MB of main memory.
  Initialization and symmetry analysis required      0.002 seconds.

  @INITGES-I, Occupancies from core Hamiltonian:

          Alpha population by irrep:  12
           Beta population by irrep:  12


 total no. of electrons in initial guess :  0.000000000000000E+000
  --------------------------------------------------------------------
  Iteration         Total Energy            Largest Density Difference
  --------------------------------------------------------------------
       0            74.590697649250529              0.0000000000D+00
       1          -133.898717987675411              0.1300634860D+02
       2          -132.603435219020952              0.8838190258D+02
       3          -146.185494727283128              0.8834498977D+02
       4          -129.689683755029478              0.1487164911D+02
       5          -146.324110614365821              0.1487035142D+02
       6          -127.789179405517302              0.6812561439D+01
       7          -146.622845268837864              0.6583813395D+01
       8          -127.672823469315006              0.6583793824D+01
       9          -160.575758463882551              0.6380286368D+01
      10          -168.463444397770672              0.1567486315D+01
      11          -168.747904152232820              0.6136272888D+00
      12          -168.844194711795183              0.2933308563D+00
      13          -168.871306940306653              0.1256945327D+00
      14          -168.874861884825492              0.5936022907D-01
      15          -168.875130725423617              0.1722582967D-01
      16          -168.875165782017262              0.5708000550D-02
      17          -168.875169096421075              0.1979729417D-02
      18          -168.875169423502996              0.6003148768D-03
      19          -168.875169458874893              0.1356439091D-03
      20          -168.875169466214317              0.6655260637D-04
      21          -168.875169467048266              0.2460875494D-04
      22          -168.875169467152432              0.9268779893D-05
      23          -168.875169467178324              0.5769769504D-05
      24          -168.875169467186311              0.3799398582D-05
      25          -168.875169467185628              0.1654733739D-05
      26          -168.875169467186197              0.3840764502D-06
      27          -168.875169467187163              0.1737913680D-06
      28          -168.875169467184804              0.5790234270D-07
      29          -168.875169467187675              0.3416814376D-07
      30          -168.875169467184548              0.2183651826D-07

  SCF has converged.

 Density matrix saved to file den.dat
 total electron number:   24.0000000000004     
     E(SCF)=      -168.875169467184065              0.4893092820D-08

  Eigenvector printing suppressed.

 @PUTMOS-I, Writing converged MOs to NEWMOS. 
 @PUTMOS-I, Symmetry   1 Full Blocks 33 Partial Blocksize   0
 @PUTFOCK-I, Writing converged Fock matrix to NEWFOCK. 
 @PUTFOCK-I, Symmetry   1 Full Blocks 33 Partial Blocksize   0


 
  ORBITAL EIGENVALUES (ALPHA)  (1H = 27.2113834 eV)

       MO #        E(hartree)               E(eV)           FULLSYM    COMPSYM
       ----   --------------------   --------------------   -------   ---------
    1     1         -20.6045194408        -560.6774782768       A         A (1)
    2     2         -15.6325570382        -425.3835030882       A         A (1)
    3     3         -11.3283092159        -308.2589653482       A         A (1)
    4     4          -1.4568792405         -39.6436995801       A         A (1)
    5     5          -1.0675631728         -29.0498707980       A         A (1)
    6     6          -0.9034928804         -24.5852911680       A         A (1)
    7     7          -0.7339400173         -19.9715232044       A         A (1)
    8     8          -0.6638730735         -18.0649047331       A         A (1)
    9     9          -0.5680405447         -15.4571690474       A         A (1)
   10    10          -0.5087757619         -13.8444923216       A         A (1)
   11    11          -0.4970159066         -13.5244903913       A         A (1)
   12    12          -0.4475228320         -12.1777153613       A         A (1)
  +++++++++++++++++++++++++++++++++++++++++++++++++++++++++++++++++++++++++++++
   13    13           0.1381761385           3.7599638826       A         A (1)
   14    14           0.1679689456           4.5706673772       A         A (1)
   15    15           0.2010309568           5.4703304408       A         A (1)
   16    16           0.2209101588           6.0112710270       A         A (1)
   17    17           0.2405789542           6.5464861615       A         A (1)
   18    18           0.3063532471           8.3362956632       A         A (1)
   19    19           0.4792551505          13.0411956468       A         A (1)
   20    20           0.5038482355          13.7104075105       A         A (1)
   21    21           0.5253750313          14.2961814061       A         A (1)
   22    22           0.5423702228          14.7586440769       A         A (1)
   23    23           0.5722334154          15.5712628610       A         A (1)
   24    24           0.6013045010          16.3623273156       A         A (1)
   25    25           0.6159736544          16.7614952746       A         A (1)
   26    26           0.6332539286          17.2317154418       A         A (1)
   27    27           0.6690059308          18.2045768795       A         A (1)
   28    28           0.7123508642          19.3840524812       A         A (1)
   29    29           0.7331236826          19.9493096069       A         A (1)
   30    30           0.7622920469          20.7430211517       A         A (1)
   31    31           0.8332141009          22.6729083548       A         A (1)
   32    32           0.8964134859          24.3926510497       A         A (1)
   33    33           0.9468551059          25.7652373120       A         A (1)
   34    34           1.0148661519          27.6159119594       A         A (1)
   35    35           1.0363122219          28.1994891918       A         A (1)
   36    36           1.1210567467          30.5055049488       A         A (1)
   37    37           1.1537446157          31.3949870837       A         A (1)
   38    38           1.1601706932          31.5698495421       A         A (1)
   39    39           1.2612791295          34.3211499684       A         A (1)
   40    40           1.3140022110          35.7558179531       A         A (1)
   41    41           1.3424205859          36.5291212482       A         A (1)
   42    42           1.3955087745          37.9737243009       A         A (1)
   43    43           1.4226932905          38.7134525891       A         A (1)
   44    44           1.5051574303          40.9574159142       A         A (1)
   45    45           1.5620333782          42.5050891378       A         A (1)
   46    46           1.5668910523          42.6372731690       A         A (1)
   47    47           1.6227704020          44.1578275801       A         A (1)
   48    48           1.7491181314          47.5959240864       A         A (1)
   49    49           1.7840148790          48.5455128632       A         A (1)
   50    50           1.8377531179          50.0078046856       A         A (1)
   51    51           1.9836616932          53.9781788696       A         A (1)
   52    52           2.0235009529          55.0622602408       A         A (1)
   53    53           2.0792554846          56.5794181790       A         A (1)
   54    54           2.1377858511          58.1721104217       A         A (1)
   55    55           2.2561113454          61.3919108116       A         A (1)
   56    56           2.3627951740          64.2949253754       A         A (1)
   57    57           2.3948679935          65.1676711634       A         A (1)
   58    58           2.4249278439          65.9856412778       A         A (1)
   59    59           2.5747279996          70.0619107469       A         A (1)
   60    60           2.6772177644          72.8507990331       A         A (1)
   61    61           2.8156914144          76.6188586137       A         A (1)
   62    62           2.9660497863          80.7103179176       A         A (1)
   63    63           3.0567413593          83.1781610815       A         A (1)
   64    64           3.0980082618          84.3010905870       A         A (1)
   65    65           3.1369546379          85.3608753607       A         A (1)
   66    66           3.1918504848          86.8546672965       A         A (1)
   67    67           3.2634893572          88.8040601196       A         A (1)
   68    68           3.2841780393          89.3670277823       A         A (1)
   69    69           3.2920964112          89.5824976342       A         A (1)
   70    70           3.3382247190          90.8377127046       A         A (1)
   71    71           3.3700808484          91.7045620549       A         A (1)
   72    72           3.3854057276          92.1215732189       A         A (1)
   73    73           3.4747408262          94.5525048364       A         A (1)
   74    74           3.5327608139          96.1313089687       A         A (1)
   75    75           3.6180783962          98.4529184099       A         A (1)
   76    76           3.6382273512          99.0011993501       A         A (1)
   77    77           3.6766650421         100.0471420940       A         A (1)
   78    78           3.7134905892         101.0492161754       A         A (1)
   79    79           3.7272238529         101.4229172800       A         A (1)
   80    80           3.7924821216         103.1986850498       A         A (1)
   81    81           3.8472706304         104.6895561675       A         A (1)
   82    82           3.9010576865         106.1531763716       A         A (1)
   83    83           3.9485952983         107.4467405539       A         A (1)
   84    84           3.9901463444         108.5774019992       A         A (1)
   85    85           4.0707657553         110.7711676978       A         A (1)
   86    86           4.1036998319         111.6673494851       A         A (1)
   87    87           4.1448596720         112.7873656741       A         A (1)
   88    88           4.1590139051         113.1725219376       A         A (1)
   89    89           4.2493746580         115.6313630300       A         A (1)
   90    90           4.2847099408         116.5928849564       A         A (1)
   91    91           4.3093077756         117.2622260700       A         A (1)
   92    92           4.4074636001         119.9331818445       A         A (1)
   93    93           4.4530274323         121.1730367514       A         A (1)
   94    94           4.5064529904         122.6268200961       A         A (1)
   95    95           4.6737500617         127.1792048457       A         A (1)
   96    96           4.7052066799         128.0351829421       A         A (1)
   97    97           4.7919689055         130.3961031285       A         A (1)
   98    98           4.8259092051         131.3196656336       A         A (1)
   99    99           4.9412722998         134.4588550345       A         A (1)
  100   100           5.0537757807         137.5202303864       A         A (1)
  101   101           5.1063427614         138.9506506527       A         A (1)
  102   102           5.1284138478         139.5512354462       A         A (1)
  103   103           5.2001513395         141.5033118366       A         A (1)
  104   104           5.2331586425         142.4014862146       A         A (1)
  105   105           5.2981623636         144.1703273923       A         A (1)
  106   106           5.3623385894         145.9166512777       A         A (1)
  107   107           5.4609794578         148.6008057671       A         A (1)
  108   108           5.5120031893         149.9892320859       A         A (1)
  109   109           5.5609511103         151.3211727316       A         A (1)
  110   110           5.5800016851         151.8395652272       A         A (1)
  111   111           5.6863450996         154.7333166487       A         A (1)
  112   112           5.7295771063         155.9097193605       A         A (1)
  113   113           5.8189852351         158.3426382315       A         A (1)
  114   114           5.8902562067         160.2820199644       A         A (1)
  115   115           5.9909539675         163.0221453402       A         A (1)
  116   116           6.0442418577         164.4721825512       A         A (1)
  117   117           6.1314457832         166.8451220024       A         A (1)
  118   118           6.2130521049         169.0657429118       A         A (1)
  119   119           6.3307691600         172.2689868286       A         A (1)
  120   120           6.3799660117         173.6077012222       A         A (1)
  121   121           6.4233411013         174.7879974158       A         A (1)
  122   122           6.7000106431         182.3165583936       A         A (1)
  123   123           6.7566694708         183.8583234761       A         A (1)
  124   124           6.9580835660         189.3390796436       A         A (1)
  125   125           7.0819658378         192.7100876389       A         A (1)
  126   126           7.1035770860         193.2981595980       A         A (1)
  127   127           7.3845664997         200.9442702660       A         A (1)
  128   128           7.4891369527         203.7897769557       A         A (1)
  129   129           7.8023016496         212.3114215901       A         A (1)
  130   130          10.6091714741         288.6902325368       A         A (1)
  131   131          11.4499353583         311.5685809394       A         A (1)
  132   132          13.2318420429         360.0567269181       A         A (1)


  VSCF finished.

 @CHECKOUT-I, Total execution time (CPU/WALL):       16.41/      26.33 seconds.
--executable xvscf finished with status     0 in       26.44 seconds (walltime).
 --invoking executable--
/home/orgChemistry/bin/cfour_v21/bin/xvtran
 @GETMEM-I,  Allocated    4768 MB of main memory.
  Partial RHF integral transformation
  Frozen-core orbitals requested within analytic derivative calculation
  Transformation of IIII integrals :
  1 pass through the AO integral file was required.
    38225697 AO integrals were read.
    12173601 MO integrals were written to HF2.
  Summary of active molecular orbitals: 
------------------------------------------------------------------------
 
  Index      Eigenvalue    Symmetry    Index      Eigenvalue    Symmetry
------------------------------------------------------------------------
     1       -20.6045194        1        67         3.2634894        1
     2       -15.6325570        1        68         3.2841780        1
     3       -11.3283092        1        69         3.2920964        1
     4        -1.4568792        1        70         3.3382247        1
     5        -1.0675632        1        71         3.3700808        1
     6        -0.9034929        1        72         3.3854057        1
     7        -0.7339400        1        73         3.4747408        1
     8        -0.6638731        1        74         3.5327608        1
     9        -0.5680405        1        75         3.6180784        1
    10        -0.5087758        1        76         3.6382274        1
    11        -0.4970159        1        77         3.6766650        1
    12        -0.4475228        1        78         3.7134906        1
    13         0.1381761        1        79         3.7272239        1
    14         0.1679689        1        80         3.7924821        1
    15         0.2010310        1        81         3.8472706        1
    16         0.2209102        1        82         3.9010577        1
    17         0.2405790        1        83         3.9485953        1
    18         0.3063532        1        84         3.9901463        1
    19         0.4792552        1        85         4.0707658        1
    20         0.5038482        1        86         4.1036998        1
    21         0.5253750        1        87         4.1448597        1
    22         0.5423702        1        88         4.1590139        1
    23         0.5722334        1        89         4.2493747        1
    24         0.6013045        1        90         4.2847099        1
    25         0.6159737        1        91         4.3093078        1
    26         0.6332539        1        92         4.4074636        1
    27         0.6690059        1        93         4.4530274        1
    28         0.7123509        1        94         4.5064530        1
    29         0.7331237        1        95         4.6737501        1
    30         0.7622920        1        96         4.7052067        1
    31         0.8332141        1        97         4.7919689        1
    32         0.8964135        1        98         4.8259092        1
    33         0.9468551        1        99         4.9412723        1
    34         1.0148662        1       100         5.0537758        1
    35         1.0363122        1       101         5.1063428        1
    36         1.1210567        1       102         5.1284138        1
    37         1.1537446        1       103         5.2001513        1
    38         1.1601707        1       104         5.2331586        1
    39         1.2612791        1       105         5.2981624        1
    40         1.3140022        1       106         5.3623386        1
    41         1.3424206        1       107         5.4609795        1
    42         1.3955088        1       108         5.5120032        1
    43         1.4226933        1       109         5.5609511        1
    44         1.5051574        1       110         5.5800017        1
    45         1.5620334        1       111         5.6863451        1
    46         1.5668911        1       112         5.7295771        1
    47         1.6227704        1       113         5.8189852        1
    48         1.7491181        1       114         5.8902562        1
    49         1.7840149        1       115         5.9909540        1
    50         1.8377531        1       116         6.0442419        1
    51         1.9836617        1       117         6.1314458        1
    52         2.0235010        1       118         6.2130521        1
    53         2.0792555        1       119         6.3307692        1
    54         2.1377859        1       120         6.3799660        1
    55         2.2561113        1       121         6.4233411        1
    56         2.3627952        1       122         6.7000106        1
    57         2.3948680        1       123         6.7566695        1
    58         2.4249278        1       124         6.9580836        1
    59         2.5747280        1       125         7.0819658        1
    60         2.6772178        1       126         7.1035771        1
    61         2.8156914        1       127         7.3845665        1
    62         2.9660498        1       128         7.4891370        1
    63         3.0567414        1       129         7.8023016        1
    64         3.0980083        1       130        10.6091715        1
    65         3.1369546        1       131        11.4499354        1
    66         3.1918505        1       132        13.2318420        1
------------------------------------------------------------------------
  -20.6045194408146       -15.6325570381786       -11.3283092159214     
  -1.45687924047464       -1.06756317276954      -0.903492880410024     
 -0.733940017338097      -0.663873073542673      -0.568040544655501     
 -0.508775761896224      -0.497015906633606      -0.447522831981499     
  0.138176138543557       0.167968945569579       0.201030956800891     
  0.220910158760642       0.240578954228677       0.306353247117685     
  0.479255150506123       0.503848235460513       0.525375031323363     
  0.542370222782854       0.572233415409733       0.601304500955185     
  0.615973654414906       0.633253928641665       0.669005930785219     
  0.712350864204224       0.733123682601407       0.762292046928777     
  0.833214100934798       0.896413485898906       0.946855105941254     
   1.01486615191429        1.03631222188470        1.12105674674542     
   1.15374461570587        1.16017069319920        1.26127912954164     
   1.31400221104123        1.34242058594412        1.39550877449683     
   1.42269329052625        1.50515743033617        1.56203337820097     
   1.56689105225857        1.62277040204037        1.74911813143738     
   1.78401487897723        1.83775311789530        1.98366169320125     
   2.02350095294289        2.07925548463600        2.13778585111109     
   2.25611134535849        2.36279517399924        2.39486799349390     
   2.42492784390343        2.57472799956449        2.67721776442660     
   2.81569141441312        2.96604978626838        3.05674135926115     
   3.09800826175573        3.13695463791432        3.19185048476781     
   3.26348935716285        3.28417803933675        3.29209641117320     
   3.33822471902000        3.37008084840280        3.38540572762344     
   3.47474082616478        3.53276081394242        3.61807839618666     
   3.63822735120851        3.67666504210179        3.71349058921320     
   3.72722385293952        3.79248212164660        3.84727063040321     
   3.90105768645302        3.94859529831629        3.99014634438640     
   4.07076575525479        4.10369983192660        4.14485967200231     
   4.15901390509974        4.24937465803536        4.28470994078224     
   4.30930777558266        4.40746360012226        4.45302743231180     
   4.50645299040826        4.67375006173798        4.70520667986709     
   4.79196890550317        4.82590920510028        4.94127229983066     
   5.05377578070475        5.10634276141666        5.12841384779465     
   5.20015133948122        5.23315864251796        5.29816236363571     
   5.36233858943337        5.46097945784972        5.51200318929533     
   5.56095111032217        5.58000168514882        5.68634509955627     
   5.72957710633978        5.81898523511111        5.89025620668798     
   5.99095396745554        6.04424185766191        6.13144578318078     
   6.21305210494492        6.33076915996091        6.37996601165998     
   6.42334110127777        6.70001064310568        6.75666947076492     
   6.95808356599693        7.08196583782925        7.10357708597611     
   7.38456649969668        7.48913695272512        7.80230164961244     
   10.6091714740525        11.4499353582817        13.2318420429174     
 @CHECKOUT-I, Total execution time (CPU/WALL):        4.64/       5.31 seconds.
--executable xvtran finished with status     0 in        5.41 seconds (walltime).
 --invoking executable--
/home/orgChemistry/bin/cfour_v21/bin/xintprc
 @GETMEM-I,  Allocated    4768 MB of main memory.
  @GMOIAA-I, Processing MO integrals for spin case AA.
  @GMOIAA-I, Generation of integral list completed.
                      TYPE                NUMBER
                      ----               --------
                      PPPP                     0
                      PPPH              10454400
                      PPHH               1037520
                      PHPH                566280
                      PHHH                112320
                      HHHH                  3081

                     TOTAL              12173601

  @FORMT2-I, Second-order MP correlation energies:
            ------------------------------------------------
            E(SCF)                  =   -168.875169467184 a.u.
            E2(AA)                  =     -0.075890973022 a.u.
            E2(AB)                  =     -0.465639135724 a.u.
            E2(TOT)                 =     -0.617421081769 a.u.
            Total MP2 energy        =   -169.492590548953 a.u.
            ------------------------------------------------
   Largest T2 amplitudes for spin case AB:
       _       _                 _       _                 _       _
   i   j   a   b             i   j   a   b             i   j   a   b
-----------------------------------------------------------------------------
[ 10  10  17  17]-0.04987 [  9   9  17  17]-0.03046 [ 10   9  17  17]-0.02151
[  9  10  17  17]-0.02151 [ 11  11  17  17]-0.02016 [ 11  10  17  17]-0.01720
[ 10  11  17  17]-0.01720 [ 12  12  17  17]-0.01647 [  5   5  17  17]-0.01497
[ 12  10  20  17] 0.01315 [ 10  12  17  20] 0.01315 [  6   6  17  17]-0.01220
[ 10  10  27  17]-0.01216 [ 10  10  17  27]-0.01216 [ 10   8  17  16]-0.01214
-----------------------------------------------------------------------------
   Norm of T2AB vector (  2073600 symmetry allowed elements):  0.3607518971.
-----------------------------------------------------------------------------
 @CHECKOUT-I, Total execution time (CPU/WALL):        0.84/       1.88 seconds.
--executable xintprc finished with status     0 in        1.98 seconds (walltime).
  calling xecc 
 --invoking executable--
/home/orgChemistry/bin/cfour_v21/bin/xecc
 @GETMEM-I,  Allocated    4768 MB of main memory.
 CCSD(T) energy will be calculated.
 AO based algorithm is used. 
   Frozen core orbitals in analytic derivative calculation
 Largest T2 amplitudes for spin case AB:
        _       _                 _       _                 _       _
    i   j   a   b             i   j   a   b             i   j   a   b
 -----------------------------------------------------------------------------
 [ 10  10  17  17]-0.04987 [  9   9  17  17]-0.03046 [ 10   9  17  17]-0.02151
 [  9  10  17  17]-0.02151 [ 11  11  17  17]-0.02016 [ 11  10  17  17]-0.01720
 [ 10  11  17  17]-0.01720 [ 12  12  17  17]-0.01647 [  5   5  17  17]-0.01497
 [ 12  10  20  17] 0.01315 [ 10  12  17  20] 0.01315 [  6   6  17  17]-0.01220
 [ 10  10  27  17]-0.01216 [ 10  10  17  27]-0.01216 [ 10   8  17  16]-0.01214
 -----------------------------------------------------------------------------
 Norm of T2AB vector (  2073600 symmetry allowed elements):  0.3607518971.
 -----------------------------------------------------------------------------
 The total correlation energy is -0.617421081769 a.u.
 Resorts of amplitudes and integrals (CPU/WALL):       0.06/       0.12 seconds.
 Starting iterative solution of the CC equations.
 The DIIS procedure is used to accelerate convergence.
 5 expansion vectors are used in the DIIS extrapolation.
 Convergence criterium is 10**(-10).
 Maximum number of iterations is 100.
 >>>>>>>>>>>>>>>>>>>>>>>>>>>>>>>>>>>>>>>>>>>>>>>>>>>>>>>>>>>>>>>>>>>>>>>>>>>>>>>
 Iteration Nr.   1 started:
 Generation of Intermediates required (CPU/WALL):      0.85/       1.34 seconds.
 Transformation of t(ab,ij) amplitudes required    0.0 seconds.
 Contraction of t(mu nu,ij) with AO integrals required    8.0 seconds.
 Backtransformation of t(mu nu,ij) increments required    0.0 seconds.
 Construction of Hbar required (CPU/WALL):             8.71/      10.16 seconds.
   Frozen core orbitals in analytic derivative calculation
 Amplitude changes are:
 -------------------------------------------------------------------
              Spin      RMS          Max.      Max. change for
  Amplitude   Case     Change       Change       i    j    a    b
 -------------------------------------------------------------------
     T1        AA    0.0000308207 0.0136156900    9        17
     T2        AB    0.0000000247 0.0018291592   12   10   31   17
 -------------------------------------------------------------------
 The total correlation energy is -0.608193328354 a.u.
 Convergence information after     1 iterations: 
 Largest element of residual vector :  0.13615690E-01.
 Largest element of DIIS residual   :  0.13615690E-01.
 Iteration Nr.   1 required (CPU/WALL):                9.75/      11.88 seconds.
 >>>>>>>>>>>>>>>>>>>>>>>>>>>>>>>>>>>>>>>>>>>>>>>>>>>>>>>>>>>>>>>>>>>>>>>>>>>>>>>
 Iteration Nr.   2 started:
 Generation of Intermediates required (CPU/WALL):      0.83/       1.27 seconds.
 Transformation of t(ab,ij) amplitudes required    0.0 seconds.
 Contraction of t(mu nu,ij) with AO integrals required    8.1 seconds.
 Backtransformation of t(mu nu,ij) increments required    0.0 seconds.
 Construction of Hbar required (CPU/WALL):             8.82/       9.47 seconds.
   Frozen core orbitals in analytic derivative calculation
 Amplitude changes are:
 -------------------------------------------------------------------
              Spin      RMS          Max.      Max. change for
  Amplitude   Case     Change       Change       i    j    a    b
 -------------------------------------------------------------------
     T1        AA    0.0000045158-0.0019658885   10        17
     T2        AB    0.0000000121-0.0058639548   10   10   17   17
 -------------------------------------------------------------------
 The total correlation energy is -0.627471347652 a.u.
 Convergence information after     2 iterations: 
 Largest element of residual vector : -0.58639548E-02.
 Largest element of DIIS residual   : -0.51473890E-02.
 Iteration Nr.   2 required (CPU/WALL):                9.91/      11.24 seconds.
 >>>>>>>>>>>>>>>>>>>>>>>>>>>>>>>>>>>>>>>>>>>>>>>>>>>>>>>>>>>>>>>>>>>>>>>>>>>>>>>
 Iteration Nr.   3 started:
 Generation of Intermediates required (CPU/WALL):      0.83/       1.28 seconds.
 Transformation of t(ab,ij) amplitudes required    0.0 seconds.
 Contraction of t(mu nu,ij) with AO integrals required    8.1 seconds.
 Backtransformation of t(mu nu,ij) increments required    0.0 seconds.
 Construction of Hbar required (CPU/WALL):             8.80/       9.44 seconds.
   Frozen core orbitals in analytic derivative calculation
 Amplitude changes are:
 -------------------------------------------------------------------
              Spin      RMS          Max.      Max. change for
  Amplitude   Case     Change       Change       i    j    a    b
 -------------------------------------------------------------------
     T1        AA    0.0000044946 0.0027567202    9        17
     T2        AB    0.0000000037-0.0014902992   10   10   17   17
 -------------------------------------------------------------------
 The total correlation energy is -0.626820139913 a.u.
 Convergence information after     3 iterations: 
 Largest element of residual vector :  0.27567202E-02.
 Largest element of DIIS residual   :  0.21311563E-02.
 Iteration Nr.   3 required (CPU/WALL):                9.96/      11.32 seconds.
 >>>>>>>>>>>>>>>>>>>>>>>>>>>>>>>>>>>>>>>>>>>>>>>>>>>>>>>>>>>>>>>>>>>>>>>>>>>>>>>
 Iteration Nr.   4 started:
 Generation of Intermediates required (CPU/WALL):      0.83/       1.30 seconds.
 Transformation of t(ab,ij) amplitudes required    0.0 seconds.
 Contraction of t(mu nu,ij) with AO integrals required    8.1 seconds.
 Backtransformation of t(mu nu,ij) increments required    0.0 seconds.
 Construction of Hbar required (CPU/WALL):             8.76/       9.69 seconds.
   Frozen core orbitals in analytic derivative calculation
 Amplitude changes are:
 -------------------------------------------------------------------
              Spin      RMS          Max.      Max. change for
  Amplitude   Case     Change       Change       i    j    a    b
 -------------------------------------------------------------------
     T1        AA    0.0000010257-0.0004865362   10        17
     T2        AB    0.0000000011-0.0004297111   10   10   17   17
 -------------------------------------------------------------------
 The total correlation energy is -0.628740247992 a.u.
 Convergence information after     4 iterations: 
 Largest element of residual vector : -0.48653621E-03.
 Largest element of DIIS residual   : -0.40915079E-03.
 Iteration Nr.   4 required (CPU/WALL):                9.99/      11.70 seconds.
 >>>>>>>>>>>>>>>>>>>>>>>>>>>>>>>>>>>>>>>>>>>>>>>>>>>>>>>>>>>>>>>>>>>>>>>>>>>>>>>
 Iteration Nr.   5 started:
 Generation of Intermediates required (CPU/WALL):      0.83/       1.26 seconds.
 Transformation of t(ab,ij) amplitudes required    0.0 seconds.
 Contraction of t(mu nu,ij) with AO integrals required    8.1 seconds.
 Backtransformation of t(mu nu,ij) increments required    0.0 seconds.
 Construction of Hbar required (CPU/WALL):             8.75/       9.38 seconds.
   Frozen core orbitals in analytic derivative calculation
 Amplitude changes are:
 -------------------------------------------------------------------
              Spin      RMS          Max.      Max. change for
  Amplitude   Case     Change       Change       i    j    a    b
 -------------------------------------------------------------------
     T1        AA    0.0000006209 0.0003903799    9        17
     T2        AB    0.0000000004-0.0001831453   10   10   17   17
 -------------------------------------------------------------------
 The total correlation energy is -0.628948156216 a.u.
 Convergence information after     5 iterations: 
 Largest element of residual vector :  0.39037992E-03.
 Largest element of DIIS residual   :  0.25734405E-03.
 Iteration Nr.   5 required (CPU/WALL):               10.06/      11.50 seconds.
 Largest T1 amplitudes for spin case AA:
    i       a                 i       a                 i       a    
 -----------------------------------------------------------------------------
 [  9      17    ] 0.01691 [ 11      15    ] 0.01018 [ 11      20    ]-0.00915
 [ 12      17    ] 0.00787 [ 12      13    ] 0.00778 [  5      17    ] 0.00775
 [  7      20    ] 0.00767 [ 12      14    ]-0.00751 [  9      22    ] 0.00742
 [ 12      21    ] 0.00735 [ 10      49    ]-0.00709 [ 11      17    ]-0.00672
 [ 11      26    ] 0.00598 [  7      21    ]-0.00589 [  7      26    ]-0.00575
 -----------------------------------------------------------------------------
 Norm of T1AA vector (     1440 symmetry allowed elements):  0.0519953398.
 -----------------------------------------------------------------------------
 Largest T2 amplitudes for spin case AB:
        _       _                 _       _                 _       _
    i   j   a   b             i   j   a   b             i   j   a   b
 -----------------------------------------------------------------------------
 [ 10  10  17  17]-0.05834 [  9   9  17  17]-0.03312 [ 10   9  17  17]-0.02491
 [  9  10  17  17]-0.02491 [ 11  11  17  17]-0.02338 [ 12  12  17  17]-0.02199
 [ 11  10  17  17]-0.02027 [ 10  11  17  17]-0.02027 [  5   5  17  17]-0.01481
 [ 10  10  27  17]-0.01444 [ 10  10  17  27]-0.01444 [ 12  10  20  17] 0.01313
 [ 10  12  17  20] 0.01313 [  6   6  17  17]-0.01308 [ 12  12  19  19]-0.01298
 -----------------------------------------------------------------------------
 Norm of T2AB vector (  2073600 symmetry allowed elements):  0.3941193014.
 -----------------------------------------------------------------------------
 >>>>>>>>>>>>>>>>>>>>>>>>>>>>>>>>>>>>>>>>>>>>>>>>>>>>>>>>>>>>>>>>>>>>>>>>>>>>>>>
 Iteration Nr.   6 started:
 Generation of Intermediates required (CPU/WALL):      0.83/       1.27 seconds.
 Transformation of t(ab,ij) amplitudes required    0.0 seconds.
 Contraction of t(mu nu,ij) with AO integrals required    8.0 seconds.
 Backtransformation of t(mu nu,ij) increments required    0.0 seconds.
 Construction of Hbar required (CPU/WALL):             8.71/       9.34 seconds.
   Frozen core orbitals in analytic derivative calculation
 Amplitude changes are:
 -------------------------------------------------------------------
              Spin      RMS          Max.      Max. change for
  Amplitude   Case     Change       Change       i    j    a    b
 -------------------------------------------------------------------
     T1        AA    0.0000002117 0.0001154351   12        13
     T2        AB    0.0000000001-0.0000226060   12   12   17   17
 -------------------------------------------------------------------
 The total correlation energy is -0.628964384474 a.u.
 Convergence information after     6 iterations: 
 Largest element of residual vector :  0.11543508E-03.
 Largest element of DIIS residual   : -0.93147902E-04.
 Iteration Nr.   6 required (CPU/WALL):               10.02/      11.54 seconds.
 >>>>>>>>>>>>>>>>>>>>>>>>>>>>>>>>>>>>>>>>>>>>>>>>>>>>>>>>>>>>>>>>>>>>>>>>>>>>>>>
 Iteration Nr.   7 started:
 Generation of Intermediates required (CPU/WALL):      0.83/       1.28 seconds.
 Transformation of t(ab,ij) amplitudes required    0.0 seconds.
 Contraction of t(mu nu,ij) with AO integrals required    8.0 seconds.
 Backtransformation of t(mu nu,ij) increments required    0.0 seconds.
 Construction of Hbar required (CPU/WALL):             8.71/       9.35 seconds.
   Frozen core orbitals in analytic derivative calculation
 Amplitude changes are:
 -------------------------------------------------------------------
              Spin      RMS          Max.      Max. change for
  Amplitude   Case     Change       Change       i    j    a    b
 -------------------------------------------------------------------
     T1        AA    0.0000000993 0.0000794553   12        13
     T2        AB    0.0000000000 0.0000093432   10   10   17   17
 -------------------------------------------------------------------
 The total correlation energy is -0.628966877573 a.u.
 Convergence information after     7 iterations: 
 Largest element of residual vector :  0.79455306E-04.
 Largest element of DIIS residual   :  0.57782557E-04.
 Iteration Nr.   7 required (CPU/WALL):               10.02/      11.47 seconds.
 >>>>>>>>>>>>>>>>>>>>>>>>>>>>>>>>>>>>>>>>>>>>>>>>>>>>>>>>>>>>>>>>>>>>>>>>>>>>>>>
 Iteration Nr.   8 started:
 Generation of Intermediates required (CPU/WALL):      0.83/       1.27 seconds.
 Transformation of t(ab,ij) amplitudes required    0.0 seconds.
 Contraction of t(mu nu,ij) with AO integrals required    8.1 seconds.
 Backtransformation of t(mu nu,ij) increments required    0.0 seconds.
 Construction of Hbar required (CPU/WALL):             8.78/       9.42 seconds.
   Frozen core orbitals in analytic derivative calculation
 Amplitude changes are:
 -------------------------------------------------------------------
              Spin      RMS          Max.      Max. change for
  Amplitude   Case     Change       Change       i    j    a    b
 -------------------------------------------------------------------
     T1        AA    0.0000000396-0.0000279660   12        15
     T2        AB    0.0000000000-0.0000056508   12   12   13   13
 -------------------------------------------------------------------
 The total correlation energy is -0.628966529773 a.u.
 Convergence information after     8 iterations: 
 Largest element of residual vector : -0.27965973E-04.
 Largest element of DIIS residual   : -0.16931887E-04.
 Iteration Nr.   8 required (CPU/WALL):               10.09/      11.54 seconds.
 >>>>>>>>>>>>>>>>>>>>>>>>>>>>>>>>>>>>>>>>>>>>>>>>>>>>>>>>>>>>>>>>>>>>>>>>>>>>>>>
 Iteration Nr.   9 started:
 Generation of Intermediates required (CPU/WALL):      0.83/       1.28 seconds.
 Transformation of t(ab,ij) amplitudes required    0.0 seconds.
 Contraction of t(mu nu,ij) with AO integrals required    8.0 seconds.
 Backtransformation of t(mu nu,ij) increments required    0.0 seconds.
 Construction of Hbar required (CPU/WALL):             8.70/       9.35 seconds.
   Frozen core orbitals in analytic derivative calculation
 Amplitude changes are:
[...]

 H #4 x   -0.063085   -0.031461    0.054536   -0.010790   -0.013867    0.028280
 H #4 y   -0.031848   -0.104077    0.100794   -0.002142   -0.005037    0.003212
 H #4 z    0.059647    0.107146   -0.266481   -0.002992   -0.001500    0.005715

 H #5 x   -0.058699   -0.027998   -0.043444   -0.007596   -0.019846   -0.027904
 H #5 y   -0.024389   -0.097194   -0.094706    0.001053   -0.007020   -0.002998
 H #5 z   -0.047212   -0.101220   -0.273743    0.002429    0.003147    0.003388

 H #6 x   -0.018034   -0.004347    0.019622   -0.058662   -0.011439    0.066747
 H #6 y   -0.014203   -0.008638    0.039340   -0.019731   -0.041285    0.036564
 H #6 z   -0.012848   -0.005368   -0.001241    0.129741    0.057092   -0.377509


           O #3 x      O #3 y      O #3 z      H #4 x      H #4 y      H #4 z

 O #3 x    0.188565
 O #3 y   -0.102888    0.354337
 O #3 z   -0.013978   -0.002575    0.073900

 H #4 x    0.005644    0.009099   -0.014132    0.064358
 H #4 y   -0.010097   -0.025415    0.024368    0.040437    0.125235
 H #4 z   -0.000741    0.000572    0.008617   -0.062033   -0.116762    0.267381

 H #5 x    0.003945    0.010387    0.014678    0.005301    0.002762    0.006939
 H #5 y   -0.010338   -0.024495   -0.025808    0.001989    0.009916    0.011842
 H #5 z    0.000786   -0.002072    0.009258   -0.006067   -0.011709   -0.016213

 H #6 x   -0.024731   -0.001436    0.025682   -0.001429    0.000887   -0.000820
 H #6 y    0.020786   -0.001723   -0.025585   -0.006197   -0.000622   -0.001299
 H #6 z   -0.004745   -0.002616    0.009864   -0.000584    0.000098    0.000980


           H #5 x      H #5 y      H #5 z      H #6 x      H #6 y      H #6 z

 H #5 x    0.055524
 H #5 y    0.032590    0.118682
 H #5 z    0.049782    0.112686    0.275734

 H #6 x    0.001525   -0.000905    0.000281    0.101331
 H #6 y    0.002105    0.000112   -0.000832    0.017240    0.052156
 H #6 z   -0.000050   -0.001017    0.001576   -0.111513   -0.048189    0.366329




                           Total dipole moment
                           -------------------

                               au             Debye

                    x     -0.00697141     -0.01771956
                    y      0.79523852      2.02129505
                    z      0.56021518      1.42392521

  Conversion factor used: 1 a.u. =   2.54174691 Debye 



                     Total dipole moment derivatives
                     -------------------------------

                              Ex             Ey             Ez

               C #1 x     0.30500696    -0.01145158    -0.03415918
               C #1 y     0.07063689     0.47029659    -0.01593769
               C #1 z    -0.01529247    -0.07282222     0.47548445

               N #2 x    -0.24121667    -0.13537193    -0.01509700
               N #2 y    -0.12876150    -0.10032668     0.02517792
               N #2 z     0.01116238    -0.00999037    -0.02673984

               O #3 x    -0.34509874     0.23049823     0.02784148
               O #3 y     0.14238872    -0.50328778    -0.00523782
               O #3 z    -0.07419243     0.07924532    -0.27413506

               H #4 x     0.06233817    -0.03983511     0.01808635
               H #4 y    -0.05282944    -0.02794852     0.03393042
               H #4 z     0.03878149     0.07876755    -0.05664167

               H #5 x     0.04010104    -0.06206319    -0.00560802
               H #5 y    -0.04425806    -0.02449128    -0.03662023
               H #5 z    -0.03326948    -0.09118794    -0.08905920

               H #6 x     0.17886924     0.01822357     0.00893637
               H #6 y     0.01282340     0.18575766    -0.00131259
               H #6 z     0.07281051     0.01598765    -0.02890867



 @CHECKOUT-I, Total execution time (CPU/WALL):      101.81/     102.77 seconds.
--executable xvdint finished with status     0 in      102.79 seconds (walltime).
 --invoking executable--
/home/orgChemistry/bin/cfour_v21/bin/xjoda
  igrd and ihes are                      0                     0
  gradient from JOBARC 
   0.000000053122405   0.000000139794214   0.000000004445333
  -0.000000175804524  -0.000000045237102  -0.000000144766678
   0.000000126566095  -0.000000235753868  -0.000000004110626
   0.000000043657365   0.000000086834358  -0.000000129242837
   0.000000030522912   0.000000077405308   0.000000124922462
  -0.000000078064318  -0.000000023042978   0.000000148752355
 
  masses used (in AMU) in vibrational analysis: 
  12.000000000     14.003074002     15.994914630
   1.007825035      1.007825035      1.007825035
                     Normal Coordinate Analysis
  ----------------------------------------------------------------
    Irreducible         Harmonic       Infrared        Type 
   Representation       Frequency      Intensity 
  ----------------------------------------------------------------
                       (cm-1)         (km/mol)
  ----------------------------------------------------------------
      ----                 0.8464i        2.4262      TRANSLATION
      ----                 0.4982i        1.9338      TRANSLATION
      ----                 0.1975         1.0187      TRANSLATION
      ----                 0.4455         5.4035       ROTATION  
      ----                 0.6071         0.6597       ROTATION  
      ----                 0.7312        11.1863       ROTATION  
         A               736.9453         3.9841       VIBRATION 
         A               912.0357        26.6330       VIBRATION 
         A               973.0924        17.0386       VIBRATION 
         A              1095.9527         9.3647       VIBRATION 
         A              1226.3584         2.7767       VIBRATION 
         A              1251.6410         8.3751       VIBRATION 
         A              1269.1901        31.7148       VIBRATION 
         A              1364.6756        24.5613       VIBRATION 
         A              1551.4087         1.6130       VIBRATION 
         A              3096.9868        29.7721       VIBRATION 
         A              3192.3154        22.3173       VIBRATION 
         A              3413.1641         1.5976       VIBRATION 
  ----------------------------------------------------------------
 
 
                                   Normal Coordinates 

                 A                         A                         A
               736.95                    912.04                    973.09 
             VIBRATION                 VIBRATION                 VIBRATION 
 C      0.130 0.3508 -0.0004    0.4882 -0.2367  0.0055    0.0943  0.0247  0.1145
 N      0.507-0.4357  0.0342   -0.4538 -0.3433 -0.0343   -0.0001  0.0302 -0.1276
 O     -0.622 0.0653 -0.0409   -0.0790  0.5542 -0.0042   -0.0766  0.0778  0.1334
 H      0.073 0.0778  0.0032    0.2176 -0.0490  0.0309   -0.4682 -0.0621 -0.1609
 H      0.037 0.0199  0.0377    0.0735 -0.0685  0.0258    0.6177  0.0311 -0.1235
 H      0.026 0.0558 -0.0041    0.0308  0.0065  0.0689   -0.1695 -0.4767 -0.1667

                 A                         A                         A
              1095.95                   1226.36                   1251.64 
             VIBRATION                 VIBRATION                 VIBRATION 
 C      0.049 0.0277  0.1943    0.3365 -0.2927 -0.0584    0.0946  0.2893 -0.3133
 N      0.017 0.0933  0.0452    0.1194  0.1206 -0.0060   -0.2009  0.0537  0.0112
 O     -0.089-0.0021 -0.1364   -0.1446  0.0663  0.0535   -0.0194 -0.1956  0.1951
 H      0.257-0.4746 -0.1477   -0.5866  0.2773 -0.0118    0.2311  0.3681  0.1244
 H     -0.289 0.5098 -0.1425   -0.5384  0.1095  0.0229   -0.0509 -0.2211  0.0879
 H      0.151-0.4703 -0.0050    0.0952 -0.0904 -0.0005    0.3195 -0.5665  0.0499

                 A                         A                         A
              1269.19                   1364.68                   1551.41 
             VIBRATION                 VIBRATION                 VIBRATION 
 C      0.304 0.4493  0.1954    0.1749  0.0940 -0.1613    0.1495  0.3223  0.0005
 N     -0.386-0.2092 -0.1218   -0.0232 -0.0281  0.2932   -0.0715  0.0018  0.0064
 O      0.132-0.3904 -0.0535    0.0829 -0.0622 -0.0840    0.0550 -0.0328 -0.0004
 H     -0.194 0.1333 -0.0289    0.1531  0.1359  0.0331   -0.1971 -0.4828 -0.3857
 H      0.023 0.3874 -0.0538   -0.1809  0.0560 -0.0074   -0.2350 -0.5045  0.3643
 H      0.033 0.2639  0.0758   -0.8197 -0.1636 -0.2277   -0.0364 -0.0008 -0.0025

                 A                         A                         A
              3096.99                   3192.32                   3413.16 
             VIBRATION                 VIBRATION                 VIBRATION 
 C      0.091 0.1821  0.0484    0.0230  0.0295 -0.3305    0.0075  0.0060  0.0191
 N     -0.009-0.0016 -0.0026   -0.0039  0.0005  0.0126   -0.0945 -0.0415  0.2411
 O      0.005-0.0004 -0.0005    0.0000 -0.0004  0.0031    0.0020  0.0000 -0.0040
 H     -0.141-0.2754  0.5112   -0.1892 -0.3603  0.6313    0.0092  0.0116 -0.0209
 H     -0.149-0.3446 -0.6763    0.1165  0.2620  0.4910   -0.0072 -0.0112 -0.0273
 H     -0.007-0.0007  0.0097    0.0079 -0.0038 -0.0409    0.3169  0.1335 -0.9005
            Gradient vector in normal coordinate representation
         ----------------------------------------------------------
   i    W(I)     dE/dQ(i)     dE/dq      dE/dq     [dE/dQ(i)]/w(i)
                              (cm-1)      (eV)        (relative)
         ----------------------------------------------------------
    7   736.95 -0.0000000143     -0.00127     -0.00000   0.0000000000
    8   912.04 -0.0000000013     -0.00011     -0.00000   0.0000000000
    9   973.09  0.0000000002      0.00002      0.00000   0.0000000000
   10  1095.95 -0.0000000039     -0.00029     -0.00000   0.0000000000
   11  1226.36 -0.0000000326     -0.00224     -0.00000   0.0000000000
   12  1251.64  0.0000000456      0.00310      0.00000   0.0000000000
   13  1269.19  0.0000001090      0.00737      0.00000   0.0000000000
   14  1364.68  0.0000000485      0.00316      0.00000   0.0000000000
   15  1551.41  0.0000000232      0.00142      0.00000   0.0000000000
   16  3096.99 -0.0000001995     -0.00863     -0.00000   0.0000000000
   17  3192.32 -0.0000000416     -0.00177     -0.00000   0.0000000000
   18  3413.16 -0.0000001655     -0.00682     -0.00000   0.0000000000
         ----------------------------------------------------------
 
                      Normal modes in internal coordinates 
---------------------------------------------------------------------------
              0.846         0.498         0.197         0.446         0.607
---------------------------------------------------------------------------
R12        0.000000     -0.000000     -0.000000     -0.000000     -0.000000
R13       -0.000000      0.000000     -0.000000      0.000000     -0.000000
A213      -0.000000      0.000000      0.000000      0.000000      0.000000
R14       -0.000000     -0.000000      0.000000      0.000000      0.000000
A314       0.000000     -0.000000      0.000000     -0.000000      0.000000
D2314      0.000001     -0.000000     -0.000000     -0.000000      0.000000
R15       -0.000000      0.000000      0.000000     -0.000000     -0.000000
A215       0.000000      0.000000     -0.000000      0.000000      0.000000
D3215      0.000000     -0.000000     -0.000000      0.000000      0.000000
R26        0.000000     -0.000000     -0.000000      0.000000      0.000000
A126       0.000000      0.000000      0.000000     -0.000000      0.000000
D3126      0.000000     -0.000000     -0.000000      0.000000     -0.000000
---------------------------------------------------------------------------
              0.731       736.945       912.036       973.092      1095.953
---------------------------------------------------------------------------
R12       -0.000000      0.174440      0.663812      0.049136      0.002320
R13       -0.000000      0.228985     -0.660893     -0.035814      0.006111
A213       0.000000     -0.677935     -0.002999     -0.018776     -0.016447
R14       -0.000000     -0.023315      0.011908      0.008919     -0.008429
A314       0.000000      0.040244      0.056251      0.013717     -0.556668
D2314     -0.000000      0.075405     -0.071526      0.610539     -0.058763
R15        0.000000     -0.023891      0.020309     -0.006438      0.004969
A215       0.000000     -0.000601     -0.139418      0.550376      0.044415
D3215      0.000000      0.373113     -0.114607      0.261296     -0.693743
R26       -0.000000      0.012697      0.031388     -0.018728     -0.009899
A126       0.000000     -0.031961     -0.276742      0.383468      0.130557
D3126     -0.000001      0.555630     -0.059890     -0.322949     -0.431119
---------------------------------------------------------------------------
           1226.358      1251.641      1269.190      1364.676      1551.409
---------------------------------------------------------------------------
R12       -0.022664      0.173872      0.545534      0.105302      0.185665
R13       -0.203202      0.219101      0.441926      0.068232      0.171845
A213       0.009198     -0.036316     -0.103161     -0.023171     -0.057069
R14        0.003303      0.017074      0.005109      0.021410     -0.033847
A314       0.465948      0.332136      0.022641      0.110881     -0.501994
D2314      0.563426     -0.313102      0.399099     -0.213324      0.436622
R15       -0.006493     -0.009199      0.025312      0.000390     -0.042741
A215      -0.418787     -0.274605      0.150675     -0.255150     -0.527145
D3215     -0.467127      0.337736     -0.326958     -0.139022      0.456815
R26       -0.008678     -0.017531      0.036288      0.001368      0.003465
A126       0.033789      0.083124     -0.390964      0.840573      0.016986
D3126     -0.169395     -0.717657      0.228512      0.366695      0.016395
---------------------------------------------------------------------------
           3096.987      3192.315      3413.164
---------------------------------------------------------------------------
R12        0.053454      0.004412      0.025180
R13        0.047333      0.006726      0.001441
A213      -0.022118     -0.002195      0.000325
R14       -0.601991     -0.786491      0.027656
A314      -0.013194      0.052456     -0.004130
D2314      0.021652     -0.040134     -0.023645
R15       -0.794440      0.606559     -0.034895
A215      -0.002047     -0.055114     -0.020802
D3215      0.007101      0.047926     -0.012876
R26        0.011157     -0.041316     -0.997744
A126      -0.004667      0.039195      0.015223
D3126      0.006310     -0.022553      0.021939
---------------------------------------------------------------------------
 
  ----------------------------------------------------------------
                    Dipole Moment Function
                   (Normal Coordinate Basis)
  ----------------------------------------------------------------
    Mode     Symmetry    d(Mu(x))/dQ   d(Mu(y))/dQ   d(Mu(z))/dQ
  ----------------------------------------------------------------
     Q7           A        0.062954     -0.004786     -0.010036
     Q8           A        0.138686     -0.089748     -0.005584
     Q9           A       -0.039215     -0.125379      0.014834
     Q10          A        0.036693     -0.085889      0.029712
     Q11          A       -0.036900     -0.034630     -0.016954
     Q12          A        0.075726     -0.028610     -0.045144
     Q13          A        0.022758      0.177936      0.018796
     Q14          A       -0.156916     -0.018219     -0.015491
     Q15          A        0.010768      0.036957     -0.013147
     Q16          A        0.068154      0.156516      0.037382
     Q17          A        0.011115      0.018762     -0.149723
     Q18          A        0.001961      0.021293      0.034374
  ----------------------------------------------------------------
---------------------------------------------------------------------------
------------------------------------------------------------
        Parameter                (MHz)                 (CM-1)
------------------------------------------------------------
 
           R6                -.236415E-02           -.788597E-07
           R5                -.608616E-02           -.203012E-06
           SI                            0.146745E+01
 
  A-reduced centrifugal distortion parameters (Ir representation) 
 
           DJ                0.357684E-01           0.119311E-05
           DK                0.124602E-01           0.415629E-06
           DJK               0.125004E-01           0.416969E-06
           DELJ              0.404967E-01           0.135083E-05
           DELK              0.361018E-01           0.120423E-05
           DELJK             -.158694E-01           -.529347E-06
           delJ              0.152584E-01           0.508967E-06
           delK              0.260495E-01           0.868916E-06
 
  S-reduced centrifugal distortion parameters (Ir representation) 
 
           DJ                0.316210E-01           0.105476E-05
           DK                -.827693E-02           -.276089E-06
           DJK               0.373850E-01           0.124703E-05
           D1                -.152584E-01           -.508967E-06
           D2                -.443787E-02           -.148031E-06
------------------------------------------------------------
   Rotationally projected vibrational frequencies 
            1               0.7049i
            2               0.3104i
            3               0.1688i
            4               0.1552 
            5               0.4821 
            6               0.6697 
            7             736.9452 
            8             912.0358 
            9             973.0924 
           10            1095.9526 
           11            1226.3584 
           12            1251.6410 
           13            1269.1902 
           14            1364.6757 
           15            1551.4087 
           16            3096.9868 
           17            3192.3154 
           18            3413.1640 
  Zero-point energy:   28.7130 kcal/mol =  120.1355 kJ/mol =   10042.537 cm-1 
 
  Finite temperature thermodynamic corrections:
=======================================================
Temperature     Entropy       Enthalpy     Gibbs Energy
    (K)        (J/(mol K))    (kJ/mol)      (kJ/mol) 
=======================================================
    298.15      247.4111       10.6258      -63.1398
    100.00      208.1626        3.3260      -17.4902
    200.00      231.6900        6.7336      -39.6045
    300.00      247.6858       10.7079      -63.5978
    400.00      262.0312       15.7217      -89.0908
    500.00      275.6501       21.8445     -115.9805
    600.00      288.5587       28.9381     -144.1971
    700.00      300.7179       36.8353     -173.6672
    800.00      312.1412       45.3968     -204.3161
    900.00      322.8754       54.5153     -236.0725
   1000.00      332.9772       64.1071     -268.8701
   1100.00      342.5031       74.1047     -302.6487
   1200.00      351.5051       84.4528     -337.3533
   1300.00      360.0297       95.1048     -372.9338
   1400.00      368.1184      106.0211     -409.3447
   1500.00      375.8082      117.1681     -446.5442
   1600.00      383.1320      128.5170     -484.4942
   1700.00      390.1191      140.0430     -523.1594
   1800.00      396.7960      151.7251     -562.5076
   1900.00      403.1863      163.5449     -602.5090
   2000.00      409.3114      175.4867     -643.1361
=======================================================
 @CHECKOUT-I, Total execution time (CPU/WALL):        0.03/       0.17 seconds.
--executable xjoda finished with status     0 in        0.18 seconds (walltime).
  The final electronic energy is      -169.531981403726121 a.u. 
  This computation required                        20612.15 seconds (walltime).

real	343m32.534s
user	265m20.809s
sys	33m17.077s
