 Entering Gaussian System, Link 0=/home/orgChemistry/bin/gaussian16-C.01/g16/g16
 Initial command:
 /home/orgChemistry/bin/gaussian16-C.01/g16/l1.exe "/scratch/agSchreiner/ruthm/139851/gaussian_iso5_ct.iso5_ct_b3lyp_6311_G_3df_3dp/Gau-241790.inp" -scrdir="/scratch/agSchreiner/ruthm/139851/gaussian_iso5_ct.iso5_ct_b3lyp_6311_G_3df_3dp/"
 Entering Link 1 = /home/orgChemistry/bin/gaussian16-C.01/g16/l1.exe PID=    241795.
  
 Copyright (c) 1988-2019, Gaussian, Inc.  All Rights Reserved.
  
 This is part of the Gaussian(R) 16 program.  It is based on
 the Gaussian(R) 09 system (copyright 2009, Gaussian, Inc.),
 the Gaussian(R) 03 system (copyright 2003, Gaussian, Inc.),
 the Gaussian(R) 98 system (copyright 1998, Gaussian, Inc.),
 the Gaussian(R) 94 system (copyright 1995, Gaussian, Inc.),
 the Gaussian 92(TM) system (copyright 1992, Gaussian, Inc.),
 the Gaussian 90(TM) system (copyright 1990, Gaussian, Inc.),
 the Gaussian 88(TM) system (copyright 1988, Gaussian, Inc.),
 the Gaussian 86(TM) system (copyright 1986, Carnegie Mellon
 University), and the Gaussian 82(TM) system (copyright 1983,
 Carnegie Mellon University). Gaussian is a federally registered
 trademark of Gaussian, Inc.
  
 This software contains proprietary and confidential information,
 including trade secrets, belonging to Gaussian, Inc.
  
 This software is provided under written license and may be
 used, copied, transmitted, or stored only in accord with that
 written license.
  
 The following legend is applicable only to US Government
 contracts under FAR:
  
                    RESTRICTED RIGHTS LEGEND
  
 Use, reproduction and disclosure by the US Government is
 subject to restrictions as set forth in subparagraphs (a)
 and (c) of the Commercial Computer Software - Restricted
 Rights clause in FAR 52.227-19.
  
 Gaussian, Inc.
 340 Quinnipiac St., Bldg. 40, Wallingford CT 06492
  
  
 ---------------------------------------------------------------
 Warning -- This program may not be used in any manner that
 competes with the business of Gaussian, Inc. or will provide
 assistance to any competitor of Gaussian, Inc.  The licensee
 of this program is prohibited from giving any competitor of
 Gaussian, Inc. access to this program.  By using this program,
 the user acknowledges that Gaussian, Inc. is engaged in the
 business of creating and licensing software in the field of
 computational chemistry and represents and warrants to the
 licensee that it is not a competitor of Gaussian, Inc. and that
 it will not use this program in any manner prohibited above.
 ---------------------------------------------------------------
  

 Cite this work as:
 Gaussian 16, Revision C.01,
 M. J. Frisch, G. W. Trucks, H. B. Schlegel, G. E. Scuseria, 
 M. A. Robb, J. R. Cheeseman, G. Scalmani, V. Barone, 
 G. A. Petersson, H. Nakatsuji, X. Li, M. Caricato, A. V. Marenich, 
 J. Bloino, B. G. Janesko, R. Gomperts, B. Mennucci, H. P. Hratchian, 
 J. V. Ortiz, A. F. Izmaylov, J. L. Sonnenberg, D. Williams-Young, 
 F. Ding, F. Lipparini, F. Egidi, J. Goings, B. Peng, A. Petrone, 
 T. Henderson, D. Ranasinghe, V. G. Zakrzewski, J. Gao, N. Rega, 
 G. Zheng, W. Liang, M. Hada, M. Ehara, K. Toyota, R. Fukuda, 
 J. Hasegawa, M. Ishida, T. Nakajima, Y. Honda, O. Kitao, H. Nakai, 
 T. Vreven, K. Throssell, J. A. Montgomery, Jr., J. E. Peralta, 
 F. Ogliaro, M. J. Bearpark, J. J. Heyd, E. N. Brothers, K. N. Kudin, 
 V. N. Staroverov, T. A. Keith, R. Kobayashi, J. Normand, 
 K. Raghavachari, A. P. Rendell, J. C. Burant, S. S. Iyengar, 
 J. Tomasi, M. Cossi, J. M. Millam, M. Klene, C. Adamo, R. Cammi, 
 J. W. Ochterski, R. L. Martin, K. Morokuma, O. Farkas, 
 J. B. Foresman, and D. J. Fox, Gaussian, Inc., Wallingford CT, 2019.
 
 ******************************************
 Gaussian 16:  ES64L-G16RevC.01  3-Jul-2019
                26-Jan-2021 
 ******************************************
 %Chk=file_name
 %NProcShared=24
 Will use up to   24 processors via shared memory.
 %mem=48000mb
 -------------------------------------------
 #p b3lyp/6-311++G(3df,3pd) opt freq=noraman
 -------------------------------------------
 1/18=20,19=15,26=3,38=1/1,3;
 2/9=110,12=2,17=6,18=5,40=1/2;
 3/5=4,6=6,7=1616,11=2,25=1,30=1,71=1,74=-5/1,2,3;
 4//1;
 5/5=2,38=5/2;
 6/7=2,8=2,9=2,10=2,28=1/1;
 7//1,2,3,16;
 1/18=20,19=15,26=3/3(2);
 2/9=110/2;
 99//99;
 2/9=110/2;
 3/5=4,6=6,7=1616,11=2,25=1,30=1,71=1,74=-5/1,2,3;
 4/5=5,16=3,69=1/1;
 5/5=2,38=5/2;
 7//1,2,3,16;
 1/18=20,19=15,26=3/3(-5);
 2/9=110/2;
 6/7=2,8=2,9=2,10=2,19=2,28=1/1;
 99/9=1/99;
 Leave Link    1 at Tue Jan 26 00:24:28 2021, MaxMem=  6291456000 cpu:               6.0 elap:               0.4
 (Enter /home/orgChemistry/bin/gaussian16-C.01/g16/l101.exe)
 -----
 title
 -----
 Symbolic Z-matrix:
 Charge =  0 Multiplicity = 1
 6                    -2.46673   0.70575  -0.00068 
 7                    -1.2587    0.27638  -0.0317 
 8                    -2.71807   2.03037   0.01848 
 1                    -3.28798  -0.004     0.0101 
 1                    -0.46251   0.93072  -0.0425 
 1                    -3.62759   2.35801   0.04188 
 
 ITRead=  0  0  0  0  0  0
 MicOpt= -1 -1 -1 -1 -1 -1
 NAtoms=      6 NQM=        6 NQMF=       0 NMMI=      0 NMMIF=      0
                NMic=       0 NMicF=      0.
                    Isotopes and Nuclear Properties:
 (Nuclear quadrupole moments (NQMom) in fm**2, nuclear magnetic moments (NMagM)
  in nuclear magnetons)

  Atom         1           2           3           4           5           6
 IAtWgt=          12          14          16           1           1           1
 AtmWgt=  12.0000000  14.0030740  15.9949146   1.0078250   1.0078250   1.0078250
 NucSpn=           0           2           0           1           1           1
 AtZEff=  -0.0000000  -0.0000000  -0.0000000  -0.0000000  -0.0000000  -0.0000000
 NQMom=    0.0000000   2.0440000   0.0000000   0.0000000   0.0000000   0.0000000
 NMagM=    0.0000000   0.4037610   0.0000000   2.7928460   2.7928460   2.7928460
 AtZNuc=   6.0000000   7.0000000   8.0000000   1.0000000   1.0000000   1.0000000
 Leave Link  101 at Tue Jan 26 00:24:32 2021, MaxMem=  6291456000 cpu:               8.0 elap:               0.4
 (Enter /home/orgChemistry/bin/gaussian16-C.01/g16/l103.exe)

 GradGradGradGradGradGradGradGradGradGradGradGradGradGradGradGradGradGrad
 Berny optimization.
 Initialization pass.
                           ----------------------------
                           !    Initial Parameters    !
                           ! (Angstroms and Degrees)  !
 --------------------------                            --------------------------
 ! Name  Definition              Value          Derivative Info.                !
 --------------------------------------------------------------------------------
 ! R1    R(1,2)                  1.2824         estimate D2E/DX2                !
 ! R2    R(1,3)                  1.3484         estimate D2E/DX2                !
 ! R3    R(1,4)                  1.0855         estimate D2E/DX2                !
 ! R4    R(2,5)                  1.0306         estimate D2E/DX2                !
 ! R5    R(3,6)                  0.967          estimate D2E/DX2                !
 ! A1    A(2,1,3)              120.3206         estimate D2E/DX2                !
 ! A2    A(2,1,4)              119.6033         estimate D2E/DX2                !
 ! A3    A(3,1,4)              120.0762         estimate D2E/DX2                !
 ! A4    A(1,2,5)              121.0232         estimate D2E/DX2                !
 ! A5    A(1,3,6)              120.5641         estimate D2E/DX2                !
 ! D1    D(3,1,2,5)              0.0            estimate D2E/DX2                !
 ! D2    D(4,1,2,5)            180.0            estimate D2E/DX2                !
 ! D3    D(2,1,3,6)            180.0            estimate D2E/DX2                !
 ! D4    D(4,1,3,6)              0.0            estimate D2E/DX2                !
 --------------------------------------------------------------------------------
 Trust Radius=3.00D-01 FncErr=1.00D-07 GrdErr=1.00D-06 EigMax=2.50D+02 EigMin=1.00D-04
 Number of steps in this run=     24 maximum allowed number of steps=    100.
 GradGradGradGradGradGradGradGradGradGradGradGradGradGradGradGradGradGrad

 Leave Link  103 at Tue Jan 26 00:24:36 2021, MaxMem=  6291456000 cpu:               0.6 elap:               0.5
 (Enter /home/orgChemistry/bin/gaussian16-C.01/g16/l202.exe)
                          Input orientation:                          
 ---------------------------------------------------------------------
 Center     Atomic      Atomic             Coordinates (Angstroms)
 Number     Number       Type             X           Y           Z
 ---------------------------------------------------------------------
      1          6           0       -2.466727    0.705752   -0.000681
      2          7           0       -1.258698    0.276376   -0.031702
      3          8           0       -2.718069    2.030374    0.018481
      4          1           0       -3.287981   -0.003997    0.010104
      5          1           0       -0.462508    0.930717   -0.042504
      6          1           0       -3.627589    2.358011    0.041881
 ---------------------------------------------------------------------
                    Distance matrix (angstroms):
                    1          2          3          4          5
     1  C    0.000000
     2  N    1.282443   0.000000
     3  O    1.348393   2.282278   0.000000
     4  H    1.085503   2.048986   2.112708   0.000000
     5  H    2.017239   1.030629   2.510084   2.976534   0.000000
     6  H    2.019746   3.154404   0.967016   2.386510   3.473043
                    6
     6  H    0.000000
 Stoichiometry    CH3NO
 Framework group  CS[SG(CH3NO)]
 Deg. of freedom     9
 Full point group                 CS      NOp   2
 Largest Abelian subgroup         CS      NOp   2
 Largest concise Abelian subgroup C1      NOp   1
                         Standard orientation:                         
 ---------------------------------------------------------------------
 Center     Atomic      Atomic             Coordinates (Angstroms)
 Number     Number       Type             X           Y           Z
 ---------------------------------------------------------------------
      1          6           0        0.452674    0.030007    0.000000
      2          7           0        0.000000    1.229901   -0.000000
      3          8           0       -0.396077   -1.017745   -0.000000
      4          1           0        1.525009   -0.138562    0.000000
      5          1           0       -1.013848    1.415130   -0.000000
      6          1           0       -0.058591   -1.923959    0.000000
 ---------------------------------------------------------------------
 Rotational constants (GHZ):          66.2335261          11.4246625           9.7439265
 Leave Link  202 at Tue Jan 26 00:24:42 2021, MaxMem=  6291456000 cpu:               6.7 elap:               0.5
 (Enter /home/orgChemistry/bin/gaussian16-C.01/g16/l301.exe)
 Standard basis: 6-311++G(3df,3pd) (5D, 7F)
 Ernie: Thresh=  0.10000D-02 Tol=  0.10000D-05 Strict=F.
 There are   135 symmetry adapted cartesian basis functions of A'  symmetry.
 There are    57 symmetry adapted cartesian basis functions of A"  symmetry.
 There are   117 symmetry adapted basis functions of A'  symmetry.
 There are    54 symmetry adapted basis functions of A"  symmetry.
   171 basis functions,   237 primitive gaussians,   192 cartesian basis functions
    12 alpha electrons       12 beta electrons
       nuclear repulsion energy        70.4198264601 Hartrees.
 IExCor=  402 DFT=T Ex+Corr=B3LYP ExCW=0 ScaHFX=  0.200000
 ScaDFX=  0.800000  0.720000  1.000000  0.810000 ScalE2=  1.000000  1.000000
 IRadAn=      5 IRanWt=     -1 IRanGd=            0 ICorTp=0 IEmpDi=  4
 NAtoms=    6 NActive=    6 NUniq=    6 SFac= 1.00D+00 NAtFMM=   60 NAOKFM=F Big=F
 Integral buffers will be    131072 words long.
 Raffenetti 2 integral format.
 Two-electron integral symmetry is turned on.
 Leave Link  301 at Tue Jan 26 00:24:48 2021, MaxMem=  6291456000 cpu:               3.0 elap:               0.4
 (Enter /home/orgChemistry/bin/gaussian16-C.01/g16/l302.exe)
 NPDir=0 NMtPBC=     1 NCelOv=     1 NCel=       1 NClECP=     1 NCelD=      1
         NCelK=      1 NCelE2=     1 NClLst=     1 CellRange=     0.0.
 One-electron integrals computed using PRISM.
 One-electron integral symmetry used in STVInt
 NBasis=   171 RedAO= T EigKep=  2.45D-04  NBF=   117    54
 NBsUse=   171 1.00D-06 EigRej= -1.00D+00 NBFU=   117    54
 Precomputing XC quadrature grid using
 IXCGrd= 4 IRadAn=           5 IRanWt=          -1 IRanGd=           0 AccXCQ= 0.00D+00.
 Generated NRdTot=       0 NPtTot=           0 NUsed=           0 NTot=          32
 NSgBfM=   192   192   192   192   192 MxSgAt=     6 MxSgA2=     6.
 Leave Link  302 at Tue Jan 26 00:24:54 2021, MaxMem=  6291456000 cpu:               9.7 elap:               0.8
 (Enter /home/orgChemistry/bin/gaussian16-C.01/g16/l303.exe)
 DipDrv:  MaxL=1.
 Leave Link  303 at Tue Jan 26 00:24:59 2021, MaxMem=  6291456000 cpu:               0.6 elap:               0.1
 (Enter /home/orgChemistry/bin/gaussian16-C.01/g16/l401.exe)
 ExpMin= 3.60D-02 ExpMax= 8.59D+03 ExpMxC= 1.30D+03 IAcc=3 IRadAn=         5 AccDes= 0.00D+00
 Harris functional with IExCor=  402 and IRadAn=       5 diagonalized for initial guess.
 HarFok:  IExCor=  402 AccDes= 0.00D+00 IRadAn=         5 IDoV= 1 UseB2=F ITyADJ=14
 ICtDFT=  3500011 ScaDFX=  1.000000  1.000000  1.000000  1.000000
 FoFCou: FMM=F IPFlag=           0 FMFlag=      100000 FMFlg1=           0
         NFxFlg=           0 DoJE=T BraDBF=F KetDBF=T FulRan=T
         wScrn=  0.000000 ICntrl=       500 IOpCl=  0 I1Cent=   200000004 NGrid=           0
         NMat0=    1 NMatS0=      1 NMatT0=    0 NMatD0=    1 NMtDS0=    0 NMtDT0=    0
 Petite list used in FoFCou.
 Harris En= -169.953713273125    
 JPrj=0 DoOrth=F DoCkMO=F.
 Initial guess orbital symmetries:
       Occupied  (A') (A') (A') (A') (A') (A') (A') (A') (A") (A')
                 (A') (A")
       Virtual   (A") (A') (A') (A') (A") (A') (A') (A') (A') (A')
                 (A') (A") (A') (A") (A') (A') (A') (A') (A') (A')
                 (A") (A') (A") (A') (A") (A') (A') (A') (A") (A')
                 (A') (A") (A') (A') (A") (A') (A') (A') (A") (A')
                 (A') (A') (A") (A') (A') (A") (A') (A") (A") (A')
                 (A') (A') (A") (A') (A') (A') (A') (A") (A') (A')
                 (A") (A') (A') (A") (A') (A") (A') (A") (A') (A')
                 (A') (A') (A') (A") (A") (A') (A') (A") (A') (A")
                 (A') (A') (A') (A") (A') (A') (A') (A") (A') (A")
                 (A") (A") (A') (A') (A') (A") (A') (A") (A') (A')
                 (A") (A') (A") (A') (A') (A') (A") (A") (A') (A')
                 (A') (A') (A') (A") (A') (A') (A") (A") (A') (A")
                 (A') (A') (A") (A') (A') (A') (A") (A') (A") (A')
                 (A') (A') (A") (A") (A') (A') (A') (A") (A") (A")
                 (A') (A') (A') (A') (A') (A') (A") (A') (A") (A')
                 (A') (A") (A') (A") (A') (A') (A') (A') (A')
 The electronic state of the initial guess is 1-A'.
 Leave Link  401 at Tue Jan 26 00:25:03 2021, MaxMem=  6291456000 cpu:              10.8 elap:               0.7
 (Enter /home/orgChemistry/bin/gaussian16-C.01/g16/l502.exe)
 Keep R1 ints in memory in symmetry-blocked form, NReq=163318983.
 FoFCou: FMM=F IPFlag=           0 FMFlag=           0 FMFlg1=           0
         NFxFlg=           0 DoJE=F BraDBF=F KetDBF=F FulRan=T
         wScrn=  0.000000 ICntrl=       600 IOpCl=  0 I1Cent=           0 NGrid=           0
         NMat0=    1 NMatS0=  14706 NMatT0=    0 NMatD0=    1 NMtDS0=    0 NMtDT0=    0
 Petite list used in FoFCou.
 Closed shell SCF:
 Using DIIS extrapolation, IDIIS=  1040.
 NGot=  6291456000 LenX=  6236198572 LenY=  6236161267
 Requested convergence on RMS density matrix=1.00D-08 within 128 cycles.
 Requested convergence on MAX density matrix=1.00D-06.
 Requested convergence on             energy=1.00D-06.
 No special actions if energy rises.

 Cycle   1  Pass 1  IDiag  1:
 E= -169.820484534119    
 DIIS: error= 3.29D-02 at cycle   1 NSaved=   1.
 NSaved= 1 IEnMin= 1 EnMin= -169.820484534119     IErMin= 1 ErrMin= 3.29D-02
 ErrMax= 3.29D-02  0.00D+00 EMaxC= 1.00D-01 BMatC= 1.57D-01 BMatP= 1.57D-01
 IDIUse=3 WtCom= 6.71D-01 WtEn= 3.29D-01
 Coeff-Com:  0.100D+01
 Coeff-En:   0.100D+01
 Coeff:      0.100D+01
 Gap=     0.083 Goal=   None    Shift=    0.000
 GapD=    0.083 DampG=0.500 DampE=0.500 DampFc=0.2500 IDamp=-1.
 Damping current iteration by 2.50D-01
 RMSDP=4.26D-03 MaxDP=1.27D-01              OVMax= 2.93D-01

 Cycle   2  Pass 1  IDiag  1:
 E= -169.860937744703     Delta-E=       -0.040453210584 Rises=F Damp=T
 DIIS: error= 1.33D-02 at cycle   2 NSaved=   2.
 NSaved= 2 IEnMin= 2 EnMin= -169.860937744703     IErMin= 2 ErrMin= 1.33D-02
 ErrMax= 1.33D-02  0.00D+00 EMaxC= 1.00D-01 BMatC= 2.55D-02 BMatP= 1.57D-01
 IDIUse=3 WtCom= 8.67D-01 WtEn= 1.33D-01
 Coeff-Com: -0.515D+00 0.151D+01
 Coeff-En:   0.000D+00 0.100D+01
 Coeff:     -0.447D+00 0.145D+01
 Gap=     0.238 Goal=   None    Shift=    0.000
 RMSDP=8.00D-04 MaxDP=2.66D-02 DE=-4.05D-02 OVMax= 2.31D-01

 Cycle   3  Pass 1  IDiag  1:
 E= -169.924404775161     Delta-E=       -0.063467030458 Rises=F Damp=F
 DIIS: error= 9.16D-03 at cycle   3 NSaved=   3.
 NSaved= 3 IEnMin= 3 EnMin= -169.924404775161     IErMin= 3 ErrMin= 9.16D-03
 ErrMax= 9.16D-03  0.00D+00 EMaxC= 1.00D-01 BMatC= 1.12D-02 BMatP= 2.55D-02
 IDIUse=3 WtCom= 9.08D-01 WtEn= 9.16D-02
 Coeff-Com: -0.321D+00 0.856D+00 0.464D+00
 Coeff-En:   0.000D+00 0.000D+00 0.100D+01
 Coeff:     -0.291D+00 0.778D+00 0.513D+00
 Gap=     0.248 Goal=   None    Shift=    0.000
 RMSDP=5.00D-04 MaxDP=1.62D-02 DE=-6.35D-02 OVMax= 6.84D-02

 Cycle   4  Pass 1  IDiag  1:
 E= -169.931935222480     Delta-E=       -0.007530447318 Rises=F Damp=F
 DIIS: error= 6.14D-03 at cycle   4 NSaved=   4.
 NSaved= 4 IEnMin= 4 EnMin= -169.931935222480     IErMin= 4 ErrMin= 6.14D-03
 ErrMax= 6.14D-03  0.00D+00 EMaxC= 1.00D-01 BMatC= 3.07D-03 BMatP= 1.12D-02
 IDIUse=3 WtCom= 9.39D-01 WtEn= 6.14D-02
 Coeff-Com: -0.899D-01 0.195D+00 0.347D+00 0.548D+00
 Coeff-En:   0.000D+00 0.000D+00 0.227D+00 0.773D+00
 Coeff:     -0.844D-01 0.183D+00 0.339D+00 0.562D+00
 Gap=     0.254 Goal=   None    Shift=    0.000
 RMSDP=1.79D-04 MaxDP=7.14D-03 DE=-7.53D-03 OVMax= 1.77D-02

 Cycle   5  Pass 1  IDiag  1:
 E= -169.934118095168     Delta-E=       -0.002182872688 Rises=F Damp=F
 DIIS: error= 9.43D-04 at cycle   5 NSaved=   5.
 NSaved= 5 IEnMin= 5 EnMin= -169.934118095168     IErMin= 5 ErrMin= 9.43D-04
 ErrMax= 9.43D-04  0.00D+00 EMaxC= 1.00D-01 BMatC= 1.11D-04 BMatP= 3.07D-03
 IDIUse=3 WtCom= 9.91D-01 WtEn= 9.43D-03
 Coeff-Com: -0.172D-01 0.287D-01 0.140D+00 0.284D+00 0.564D+00
 Coeff-En:   0.000D+00 0.000D+00 0.000D+00 0.000D+00 0.100D+01
 Coeff:     -0.170D-01 0.284D-01 0.139D+00 0.281D+00 0.568D+00
 Gap=     0.253 Goal=   None    Shift=    0.000
 RMSDP=4.50D-05 MaxDP=2.01D-03 DE=-2.18D-03 OVMax= 3.32D-03

 Cycle   6  Pass 1  IDiag  1:
 E= -169.934204064246     Delta-E=       -0.000085969079 Rises=F Damp=F
 DIIS: error= 2.20D-04 at cycle   6 NSaved=   6.
 NSaved= 6 IEnMin= 6 EnMin= -169.934204064246     IErMin= 6 ErrMin= 2.20D-04
 ErrMax= 2.20D-04  0.00D+00 EMaxC= 1.00D-01 BMatC= 7.64D-06 BMatP= 1.11D-04
 IDIUse=3 WtCom= 9.98D-01 WtEn= 2.20D-03
 Coeff-Com:  0.101D-02-0.385D-02 0.333D-01 0.703D-01 0.256D+00 0.643D+00
 Coeff-En:   0.000D+00 0.000D+00 0.000D+00 0.000D+00 0.000D+00 0.100D+01
 Coeff:      0.101D-02-0.384D-02 0.332D-01 0.701D-01 0.256D+00 0.644D+00
 Gap=     0.254 Goal=   None    Shift=    0.000
 RMSDP=1.22D-05 MaxDP=3.73D-04 DE=-8.60D-05 OVMax= 7.08D-04

 Cycle   7  Pass 1  IDiag  1:
 E= -169.934210400102     Delta-E=       -0.000006335855 Rises=F Damp=F
 DIIS: error= 3.49D-05 at cycle   7 NSaved=   7.
 NSaved= 7 IEnMin= 7 EnMin= -169.934210400102     IErMin= 7 ErrMin= 3.49D-05
 ErrMax= 3.49D-05  0.00D+00 EMaxC= 1.00D-01 BMatC= 1.59D-07 BMatP= 7.64D-06
 IDIUse=1 WtCom= 1.00D+00 WtEn= 0.00D+00
 Coeff-Com:  0.170D-02-0.294D-02 0.246D-02 0.350D-02 0.364D-01 0.124D+00
 Coeff-Com:  0.835D+00
 Coeff:      0.170D-02-0.294D-02 0.246D-02 0.350D-02 0.364D-01 0.124D+00
 Coeff:      0.835D+00
 Gap=     0.254 Goal=   None    Shift=    0.000
 RMSDP=2.49D-06 MaxDP=7.04D-05 DE=-6.34D-06 OVMax= 1.69D-04

 Cycle   8  Pass 1  IDiag  1:
 E= -169.934210537214     Delta-E=       -0.000000137112 Rises=F Damp=F
 DIIS: error= 6.22D-06 at cycle   8 NSaved=   8.
 NSaved= 8 IEnMin= 8 EnMin= -169.934210537214     IErMin= 8 ErrMin= 6.22D-06
 ErrMax= 6.22D-06  0.00D+00 EMaxC= 1.00D-01 BMatC= 6.15D-09 BMatP= 1.59D-07
 IDIUse=1 WtCom= 1.00D+00 WtEn= 0.00D+00
 Coeff-Com:  0.287D-03-0.379D-03-0.333D-03-0.155D-02-0.322D-02-0.109D-01
 Coeff-Com:  0.152D+00 0.864D+00
 Coeff:      0.287D-03-0.379D-03-0.333D-03-0.155D-02-0.322D-02-0.109D-01
 Coeff:      0.152D+00 0.864D+00
 Gap=     0.254 Goal=   None    Shift=    0.000
 RMSDP=5.37D-07 MaxDP=1.65D-05 DE=-1.37D-07 OVMax= 4.22D-05

 Cycle   9  Pass 1  IDiag  1:
 E= -169.934210543162     Delta-E=       -0.000000005949 Rises=F Damp=F
 DIIS: error= 6.43D-07 at cycle   9 NSaved=   9.
 NSaved= 9 IEnMin= 9 EnMin= -169.934210543162     IErMin= 9 ErrMin= 6.43D-07
 ErrMax= 6.43D-07  0.00D+00 EMaxC= 1.00D-01 BMatC= 1.09D-10 BMatP= 6.15D-09
 IDIUse=1 WtCom= 1.00D+00 WtEn= 0.00D+00
 Coeff-Com: -0.134D-04 0.159D-04-0.437D-04-0.246D-03-0.146D-02-0.456D-02
 Coeff-Com: -0.536D-02 0.978D-01 0.914D+00
 Coeff:     -0.134D-04 0.159D-04-0.437D-04-0.246D-03-0.146D-02-0.456D-02
 Coeff:     -0.536D-02 0.978D-01 0.914D+00
 Gap=     0.254 Goal=   None    Shift=    0.000
 RMSDP=6.69D-08 MaxDP=2.47D-06 DE=-5.95D-09 OVMax= 5.25D-06

 Cycle  10  Pass 1  IDiag  1:
 E= -169.934210543257     Delta-E=       -0.000000000095 Rises=F Damp=F
 DIIS: error= 2.09D-07 at cycle  10 NSaved=  10.
 NSaved=10 IEnMin=10 EnMin= -169.934210543257     IErMin=10 ErrMin= 2.09D-07
 ErrMax= 2.09D-07  0.00D+00 EMaxC= 1.00D-01 BMatC= 8.89D-12 BMatP= 1.09D-10
 IDIUse=1 WtCom= 1.00D+00 WtEn= 0.00D+00
 Coeff-Com: -0.349D-05 0.486D-05 0.204D-04 0.471D-05-0.948D-04-0.271D-03
 Coeff-Com: -0.364D-02-0.109D-01 0.822D-01 0.933D+00
 Coeff:     -0.349D-05 0.486D-05 0.204D-04 0.471D-05-0.948D-04-0.271D-03
 Coeff:     -0.364D-02-0.109D-01 0.822D-01 0.933D+00
 Gap=     0.254 Goal=   None    Shift=    0.000
 RMSDP=1.56D-08 MaxDP=6.00D-07 DE=-9.53D-11 OVMax= 1.02D-06

 Cycle  11  Pass 1  IDiag  1:
 E= -169.934210543266     Delta-E=       -0.000000000009 Rises=F Damp=F
 DIIS: error= 3.14D-08 at cycle  11 NSaved=  11.
 NSaved=11 IEnMin=11 EnMin= -169.934210543266     IErMin=11 ErrMin= 3.14D-08
 ErrMax= 3.14D-08  0.00D+00 EMaxC= 1.00D-01 BMatC= 1.73D-13 BMatP= 8.89D-12
 IDIUse=1 WtCom= 1.00D+00 WtEn= 0.00D+00
 Coeff-Com:  0.670D-06-0.757D-06 0.413D-05 0.153D-05 0.571D-05-0.466D-05
 Coeff-Com: -0.525D-03-0.351D-02-0.503D-02 0.179D+00 0.830D+00
 Coeff:      0.670D-06-0.757D-06 0.413D-05 0.153D-05 0.571D-05-0.466D-05
 Coeff:     -0.525D-03-0.351D-02-0.503D-02 0.179D+00 0.830D+00
 Gap=     0.254 Goal=   None    Shift=    0.000
 RMSDP=1.73D-09 MaxDP=5.48D-08 DE=-8.64D-12 OVMax= 1.19D-07

 SCF Done:  E(RB3LYP) =  -169.934210543     A.U. after   11 cycles
            NFock= 11  Conv=0.17D-08     -V/T= 2.0047
 KE= 1.691467724768D+02 PE=-5.393978807815D+02 EE= 1.298970713013D+02
 Leave Link  502 at Tue Jan 26 00:25:09 2021, MaxMem=  6291456000 cpu:              38.9 elap:               2.5
 (Enter /home/orgChemistry/bin/gaussian16-C.01/g16/l601.exe)
 Copying SCF densities to generalized density rwf, IOpCl= 0 IROHF=0.

 **********************************************************************

            Population analysis using the SCF Density.

 **********************************************************************

 Orbital symmetries:
       Occupied  (A') (A') (A') (A') (A') (A') (A') (A') (A") (A')
                 (A") (A')
       Virtual   (A') (A") (A') (A') (A") (A') (A') (A') (A') (A')
                 (A') (A") (A') (A") (A') (A') (A') (A') (A') (A")
                 (A') (A') (A") (A') (A") (A') (A') (A") (A') (A')
                 (A") (A') (A') (A') (A") (A') (A') (A') (A") (A')
                 (A') (A') (A") (A') (A') (A") (A') (A") (A') (A")
                 (A') (A') (A") (A') (A') (A') (A') (A") (A') (A')
                 (A") (A') (A') (A") (A') (A") (A') (A") (A') (A')
                 (A') (A') (A') (A") (A') (A") (A') (A") (A') (A")
                 (A') (A') (A') (A') (A") (A') (A') (A") (A") (A')
                 (A") (A") (A') (A') (A') (A") (A') (A') (A") (A')
                 (A") (A') (A") (A') (A') (A') (A") (A") (A') (A')
                 (A') (A') (A') (A") (A') (A') (A") (A') (A") (A")
                 (A') (A') (A") (A') (A') (A') (A") (A') (A") (A')
                 (A') (A') (A") (A") (A') (A') (A') (A") (A") (A")
                 (A') (A') (A') (A') (A') (A') (A") (A') (A") (A')
                 (A') (A") (A') (A") (A') (A') (A') (A') (A')
 The electronic state is 1-A'.
 Alpha  occ. eigenvalues --  -19.17786 -14.29484 -10.27984  -1.08810  -0.88360
 Alpha  occ. eigenvalues --   -0.64758  -0.58576  -0.49342  -0.42796  -0.38627
 Alpha  occ. eigenvalues --   -0.28679  -0.27755
 Alpha virt. eigenvalues --   -0.02372  -0.00731   0.01511   0.02009   0.05875
 Alpha virt. eigenvalues --    0.07289   0.08044   0.09292   0.13350   0.14249
 Alpha virt. eigenvalues --    0.14648   0.15810   0.18494   0.19863   0.20098
 Alpha virt. eigenvalues --    0.21760   0.24480   0.26810   0.28916   0.30913
 Alpha virt. eigenvalues --    0.32562   0.34891   0.38444   0.39241   0.41495
 Alpha virt. eigenvalues --    0.43666   0.46049   0.51356   0.51493   0.54112
 Alpha virt. eigenvalues --    0.56142   0.57295   0.60358   0.61418   0.61841
 Alpha virt. eigenvalues --    0.67265   0.70847   0.71229   0.76898   0.77470
 Alpha virt. eigenvalues --    0.80711   0.84880   0.87070   0.88518   0.89575
 Alpha virt. eigenvalues --    0.95267   0.95380   1.02267   1.06835   1.07050
 Alpha virt. eigenvalues --    1.09769   1.11677   1.20989   1.22183   1.24818
 Alpha virt. eigenvalues --    1.33596   1.45601   1.48275   1.59400   1.61609
 Alpha virt. eigenvalues --    1.74724   1.76995   1.82863   1.83607   1.85527
 Alpha virt. eigenvalues --    1.93168   1.98269   2.05061   2.06420   2.11482
 Alpha virt. eigenvalues --    2.24302   2.33759   2.38888   2.47118   2.48473
 Alpha virt. eigenvalues --    2.50582   2.61164   2.69193   2.74605   2.80873
 Alpha virt. eigenvalues --    2.83823   2.88208   2.94148   2.96534   2.97948
 Alpha virt. eigenvalues --    3.02883   3.07930   3.12161   3.16071   3.16304
 Alpha virt. eigenvalues --    3.18418   3.27763   3.31369   3.35959   3.38566
 Alpha virt. eigenvalues --    3.50563   3.53101   3.62718   3.63727   3.76070
 Alpha virt. eigenvalues --    3.84986   3.85298   3.95277   4.01731   4.04754
 Alpha virt. eigenvalues --    4.14933   4.17184   4.30256   4.32222   4.34781
 Alpha virt. eigenvalues --    4.42893   4.55051   4.66178   4.67597   4.71448
 Alpha virt. eigenvalues --    4.86524   4.93885   5.14214   5.14436   5.20281
 Alpha virt. eigenvalues --    5.31786   5.38303   5.47440   5.47901   5.66389
 Alpha virt. eigenvalues --    5.89614   5.93674   6.21403   6.33935   6.53290
 Alpha virt. eigenvalues --    6.78260   7.10869   7.18957   7.32100   7.40978
 Alpha virt. eigenvalues --    7.85121   8.03731   8.28673   8.31127   8.36565
 Alpha virt. eigenvalues --    8.42860   8.54176   8.57089   9.16773   9.47184
 Alpha virt. eigenvalues --    9.61303  10.37579  10.45828  10.72998  11.15370
 Alpha virt. eigenvalues --   11.41997  14.38658  14.50342  14.63036  15.08850
 Alpha virt. eigenvalues --   15.26618  25.59779  36.82255  50.51041
          Condensed to atoms (all electrons):
               1          2          3          4          5          6
     1  C    4.451642   0.219994   0.057294   0.446303  -0.031231   0.015638
     2  N    0.219994   7.732482  -0.136628  -0.134298   0.207039   0.016915
     3  O    0.057294  -0.136628   8.757626  -0.048967  -0.006862   0.106489
     4  H    0.446303  -0.134298  -0.048967   0.698405   0.011203  -0.011338
     5  H   -0.031231   0.207039  -0.006862   0.011203   0.529720   0.003754
     6  H    0.015638   0.016915   0.106489  -0.011338   0.003754   0.399516
 Mulliken charges:
               1
     1  C    0.840361
     2  N   -0.905504
     3  O   -0.728952
     4  H    0.038693
     5  H    0.286376
     6  H    0.469026
 Sum of Mulliken charges =  -0.00000
 Mulliken charges with hydrogens summed into heavy atoms:
               1
     1  C    0.879054
     2  N   -0.619128
     3  O   -0.259926
 Electronic spatial extent (au):  <R**2>=            148.1312
 Charge=             -0.0000 electrons
 Dipole moment (field-independent basis, Debye):
    X=              0.4627    Y=             -2.9303    Z=             -0.0000  Tot=              2.9666
 Quadrupole moment (field-independent basis, Debye-Ang):
   XX=            -16.5502   YY=            -17.1689   ZZ=            -19.2872
   XY=             -3.8332   XZ=             -0.0000   YZ=              0.0000
 Traceless Quadrupole moment (field-independent basis, Debye-Ang):
   XX=              1.1186   YY=              0.4999   ZZ=             -1.6184
   XY=             -3.8332   XZ=             -0.0000   YZ=              0.0000
 Octapole moment (field-independent basis, Debye-Ang**2):
  XXX=             -0.3477  YYY=            -22.1754  ZZZ=              0.0000  XYY=             -4.6274
  XXY=              0.4824  XXZ=              0.0000  XZZ=             -0.6594  YZZ=             -2.2084
  YYZ=             -0.0000  XYZ=              0.0000
 Hexadecapole moment (field-independent basis, Debye-Ang**3):
 XXXX=            -38.0749 YYYY=           -112.2939 ZZZZ=            -19.4995 XXXY=             -8.3900
 XXXZ=             -0.0000 YYYX=            -12.7848 YYYZ=              0.0000 ZZZX=             -0.0000
 ZZZY=              0.0000 XXYY=            -26.8248 XXZZ=            -10.8406 YYZZ=            -26.2534
 XXYZ=             -0.0000 YYXZ=             -0.0000 ZZXY=             -2.1765
 N-N= 7.041982646013D+01 E-N=-5.393978820550D+02  KE= 1.691467724768D+02
 Symmetry A'   KE= 1.618162564559D+02
 Symmetry A"   KE= 7.330516020891D+00
 No NMR shielding tensors so no spin-rotation constants.
 Leave Link  601 at Tue Jan 26 00:25:12 2021, MaxMem=  6291456000 cpu:               8.1 elap:               0.6
 (Enter /home/orgChemistry/bin/gaussian16-C.01/g16/l701.exe)
 ... and contract with generalized density number  0.
 Compute integral first derivatives.
 Leave Link  701 at Tue Jan 26 00:25:14 2021, MaxMem=  6291456000 cpu:               3.0 elap:               0.3
 (Enter /home/orgChemistry/bin/gaussian16-C.01/g16/l702.exe)
 L702 exits ... SP integral derivatives will be done elsewhere.
 Leave Link  702 at Tue Jan 26 00:25:15 2021, MaxMem=  6291456000 cpu:               0.7 elap:               0.1
 (Enter /home/orgChemistry/bin/gaussian16-C.01/g16/l703.exe)
 Integral derivatives from FoFJK, PRISM(SPDF).
 Compute integral first derivatives, UseDBF=F ICtDFT=           0.
 Calling FoFJK, ICntrl=      2127 FMM=F ISym2X=1 I1Cent= 0 IOpClX= 0 NMat=1 NMatS=1 NMatT=0.
 FoFJK:  IHMeth= 1 ICntrl=    2127 DoSepK=F KAlg= 0 I1Cent=           0 FoldK=F
 IRaf=         0 NMat=       1 IRICut=       1 DoRegI=T DoRafI=F ISym2E= 1 IDoP0=0 IntGTp=1.
 FoFCou: FMM=F IPFlag=           0 FMFlag=      100000 FMFlg1=         800
         NFxFlg=           0 DoJE=F BraDBF=F KetDBF=F FulRan=T
         wScrn=  0.000000 ICntrl=      2127 IOpCl=  0 I1Cent=           0 NGrid=           0
         NMat0=    1 NMatS0=      1 NMatT0=    0 NMatD0=    1 NMtDS0=    0 NMtDT0=    0
 Petite list used in FoFCou.
 Leave Link  703 at Tue Jan 26 00:25:17 2021, MaxMem=  6291456000 cpu:              20.9 elap:               0.9
 (Enter /home/orgChemistry/bin/gaussian16-C.01/g16/l716.exe)
 Dipole        = 1.82030956D-01-1.15288662D+00-9.14181488D-18
 ***** Axes restored to original set *****
 -------------------------------------------------------------------
 Center     Atomic                   Forces (Hartrees/Bohr)
 Number     Number              X              Y              Z
 -------------------------------------------------------------------
      1        6           0.052370464    0.000235144   -0.001150908
      2        7          -0.025724833   -0.008269805    0.000481451
      3        8          -0.003605276    0.016395448    0.000248061
      4        1          -0.003101365    0.003475937    0.000104057
      5        1          -0.019946280    0.002281083    0.000462732
      6        1           0.000007289   -0.014117807   -0.000145394
 -------------------------------------------------------------------
 Cartesian Forces:  Max     0.052370464 RMS     0.015600251
 Leave Link  716 at Tue Jan 26 00:25:19 2021, MaxMem=  6291456000 cpu:               1.0 elap:               0.1
 (Enter /home/orgChemistry/bin/gaussian16-C.01/g16/l103.exe)

 GradGradGradGradGradGradGradGradGradGradGradGradGradGradGradGradGradGrad
 Berny optimization.
 FormGI is forming the generalized inverse of G from B-inverse, IUseBI=4.
 Internal  Forces:  Max     0.041038800 RMS     0.016553508
 Search for a local minimum.
 Step number   1 out of a maximum of   24
 All quantities printed in internal units (Hartrees-Bohrs-Radians)
 RMS Force = .16554D-01 SwitMx=.10000D-02 MixMth= 1
 Mixed Optimization -- RFO/linear search
 Second derivative matrix not updated -- first step.
 The second derivative matrix:
                          R1        R2        R3        R4        R5
           R1           0.72315
           R2           0.00000   0.55365
           R3           0.00000   0.00000   0.35337
           R4           0.00000   0.00000   0.00000   0.42685
           R5           0.00000   0.00000   0.00000   0.00000   0.53991
           A1           0.00000   0.00000   0.00000   0.00000   0.00000
           A2           0.00000   0.00000   0.00000   0.00000   0.00000
           A3           0.00000   0.00000   0.00000   0.00000   0.00000
           A4           0.00000   0.00000   0.00000   0.00000   0.00000
           A5           0.00000   0.00000   0.00000   0.00000   0.00000
           D1           0.00000   0.00000   0.00000   0.00000   0.00000
           D2           0.00000   0.00000   0.00000   0.00000   0.00000
           D3           0.00000   0.00000   0.00000   0.00000   0.00000
           D4           0.00000   0.00000   0.00000   0.00000   0.00000
                          A1        A2        A3        A4        A5
           A1           0.25000
           A2           0.00000   0.16000
           A3           0.00000   0.00000   0.16000
           A4           0.00000   0.00000   0.00000   0.16000
           A5           0.00000   0.00000   0.00000   0.00000   0.16000
           D1           0.00000   0.00000   0.00000   0.00000   0.00000
           D2           0.00000   0.00000   0.00000   0.00000   0.00000
           D3           0.00000   0.00000   0.00000   0.00000   0.00000
           D4           0.00000   0.00000   0.00000   0.00000   0.00000
                          D1        D2        D3        D4
           D1           0.03247
           D2           0.00000   0.03247
           D3           0.00000   0.00000   0.02374
           D4           0.00000   0.00000   0.00000   0.02374
 ITU=  0
     Eigenvalues ---    0.02374   0.02809   0.03247   0.16000   0.16000
     Eigenvalues ---    0.16000   0.22000   0.35337   0.42685   0.53991
     Eigenvalues ---    0.55365   0.72315
 RFO step:  Lambda=-1.31625151D-02 EMin= 2.37444266D-02
 Linear search not attempted -- first point.
 Iteration  1 RMS(Cart)=  0.09022493 RMS(Int)=  0.00609577
 Iteration  2 RMS(Cart)=  0.00603951 RMS(Int)=  0.00000614
 Iteration  3 RMS(Cart)=  0.00000754 RMS(Int)=  0.00000000
 Iteration  4 RMS(Cart)=  0.00000000 RMS(Int)=  0.00000000
 ITry= 1 IFail=0 DXMaxC= 2.07D-01 DCOld= 1.00D+10 DXMaxT= 3.00D-01 DXLimC= 3.00D+00 Rises=F
 ClnCor:  largest displacement from symmetrization is 1.75D-08 for atom     3.
 Variable       Old X    -DE/DX   Delta X   Delta X   Delta X     New X
                                 (Linear)    (Quad)   (Total)
    R1        2.42347  -0.04104   0.00000  -0.05574  -0.05574   2.36773
    R2        2.54809   0.00291   0.00000   0.00513   0.00513   2.55323
    R3        2.05130   0.00007   0.00000   0.00020   0.00020   2.05151
    R4        1.94761  -0.01397   0.00000  -0.03174  -0.03174   1.91587
    R5        1.82740  -0.00479   0.00000  -0.00867  -0.00867   1.81873
    A1        2.09999   0.01828   0.00000   0.07839   0.07839   2.17838
    A2        2.08747  -0.00436   0.00000  -0.01160  -0.01160   2.07587
    A3        2.09572  -0.01392   0.00000  -0.06679  -0.06679   2.02893
    A4        2.11225  -0.02810   0.00000  -0.16230  -0.16230   1.94995
    A5        2.10424  -0.02427   0.00000  -0.14014  -0.14014   1.96410
    D1       -0.00000   0.00000   0.00000   0.00000   0.00000   0.00000
    D2        3.14159   0.00000   0.00000   0.00000   0.00000   3.14159
    D3        3.14159   0.00000   0.00000   0.00000   0.00000   3.14159
    D4       -0.00000  -0.00000   0.00000   0.00000   0.00000   0.00000
         Item               Value     Threshold  Converged?
 Maximum Force            0.041039     0.000450     NO 
 RMS     Force            0.016554     0.000300     NO 
 Maximum Displacement     0.206551     0.001800     NO 
 RMS     Displacement     0.092343     0.001200     NO 
 Predicted change in Energy=-6.982311D-03
 Lowest energy point so far.  Saving SCF results.
 GradGradGradGradGradGradGradGradGradGradGradGradGradGradGradGradGradGrad

 Leave Link  103 at Tue Jan 26 00:25:19 2021, MaxMem=  6291456000 cpu:               1.5 elap:               0.1
 (Enter /home/orgChemistry/bin/gaussian16-C.01/g16/l202.exe)
                          Input orientation:                          
 ---------------------------------------------------------------------
 Center     Atomic      Atomic             Coordinates (Angstroms)
 Number     Number       Type             X           Y           Z
 ---------------------------------------------------------------------
      1          6           0       -2.417985    0.734721   -0.001456
      2          7           0       -1.270136    0.233327   -0.031892
      3          8           0       -2.680560    2.059928    0.017959
      4          1           0       -3.279531    0.074310    0.010724
      5          1           0       -0.549340    0.946236   -0.040432
      6          1           0       -3.624020    2.248709    0.040679
 ---------------------------------------------------------------------
                    Distance matrix (angstroms):
                    1          2          3          4          5
     1  C    0.000000
     2  N    1.252949   0.000000
     3  O    1.351109   2.308301   0.000000
     4  H    1.085611   2.016128   2.074005   0.000000
     5  H    1.880982   1.013834   2.405373   2.866499   0.000000
     6  H    1.936092   3.099645   0.962430   2.201722   3.340160
                    6
     6  H    0.000000
 Stoichiometry    CH3NO
 Framework group  CS[SG(CH3NO)]
 Deg. of freedom     9
 Full point group                 CS      NOp   2
 RotChk:  IX=2 Diff= 1.91D+00
 Largest Abelian subgroup         CS      NOp   2
 Largest concise Abelian subgroup C1      NOp   1
                         Standard orientation:                         
 ---------------------------------------------------------------------
 Center     Atomic      Atomic             Coordinates (Angstroms)
 Number     Number       Type             X           Y           Z
 ---------------------------------------------------------------------
      1          6           0        0.000000    0.415484   -0.000000
      2          7           0       -1.227715    0.165292   -0.000000
      3          8           0        0.977304   -0.517453    0.000000
      4          1           0        0.325007    1.451304   -0.000000
      5          1           0       -1.407347   -0.832501   -0.000000
      6          1           0        1.857915   -0.129130    0.000000
 ---------------------------------------------------------------------
 Rotational constants (GHZ):          72.4443116          11.3452621           9.8090928
 Leave Link  202 at Tue Jan 26 00:25:19 2021, MaxMem=  6291456000 cpu:               0.5 elap:               0.0
 (Enter /home/orgChemistry/bin/gaussian16-C.01/g16/l301.exe)
 Standard basis: 6-311++G(3df,3pd) (5D, 7F)
 Ernie: Thresh=  0.10000D-02 Tol=  0.10000D-05 Strict=F.
 There are   135 symmetry adapted cartesian basis functions of A'  symmetry.
 There are    57 symmetry adapted cartesian basis functions of A"  symmetry.
 There are   117 symmetry adapted basis functions of A'  symmetry.
 There are    54 symmetry adapted basis functions of A"  symmetry.
   171 basis functions,   237 primitive gaussians,   192 cartesian basis functions
    12 alpha electrons       12 beta electrons
       nuclear repulsion energy        71.0981014639 Hartrees.
 IExCor=  402 DFT=T Ex+Corr=B3LYP ExCW=0 ScaHFX=  0.200000
 ScaDFX=  0.800000  0.720000  1.000000  0.810000 ScalE2=  1.000000  1.000000
 IRadAn=      5 IRanWt=     -1 IRanGd=            0 ICorTp=0 IEmpDi=  4
 NAtoms=    6 NActive=    6 NUniq=    6 SFac= 1.00D+00 NAtFMM=   60 NAOKFM=F Big=F
 Integral buffers will be    131072 words long.
 Raffenetti 2 integral format.
 Two-electron integral symmetry is turned on.
 Leave Link  301 at Tue Jan 26 00:25:19 2021, MaxMem=  6291456000 cpu:               1.6 elap:               0.1
 (Enter /home/orgChemistry/bin/gaussian16-C.01/g16/l302.exe)
 NPDir=0 NMtPBC=     1 NCelOv=     1 NCel=       1 NClECP=     1 NCelD=      1
         NCelK=      1 NCelE2=     1 NClLst=     1 CellRange=     0.0.
 One-electron integrals computed using PRISM.
 One-electron integral symmetry used in STVInt
 NBasis=   171 RedAO= T EigKep=  2.12D-04  NBF=   117    54
 NBsUse=   171 1.00D-06 EigRej= -1.00D+00 NBFU=   117    54
 Precomputing XC quadrature grid using
 IXCGrd= 4 IRadAn=           5 IRanWt=          -1 IRanGd=           0 AccXCQ= 0.00D+00.
 Generated NRdTot=       0 NPtTot=           0 NUsed=           0 NTot=          32
 NSgBfM=   192   192   192   192   192 MxSgAt=     6 MxSgA2=     6.
 Leave Link  302 at Tue Jan 26 00:25:19 2021, MaxMem=  6291456000 cpu:               3.2 elap:               0.2
 (Enter /home/orgChemistry/bin/gaussian16-C.01/g16/l303.exe)
 DipDrv:  MaxL=1.
 Leave Link  303 at Tue Jan 26 00:25:19 2021, MaxMem=  6291456000 cpu:               0.5 elap:               0.1
 (Enter /home/orgChemistry/bin/gaussian16-C.01/g16/l401.exe)
 Initial guess from the checkpoint file:  "file_name.chk"
 B after Tr=    -0.000000    0.000000    0.000000
         Rot=    0.744765   -0.000000   -0.000000   -0.667327 Ang= -83.72 deg.
 Guess basis will be translated and rotated to current coordinates.
 JPrj=2 DoOrth=T DoCkMO=T.
 Initial guess orbital symmetries:
       Occupied  (A') (A') (A') (A') (A') (A') (A') (A') (A") (A')
                 (A") (A')
       Virtual   (A') (A") (A') (A') (A") (A') (A') (A') (A') (A')
                 (A') (A") (A') (A") (A') (A') (A') (A') (A') (A")
                 (A') (A') (A") (A') (A") (A') (A') (A") (A') (A')
                 (A") (A') (A') (A') (A") (A') (A') (A') (A") (A')
                 (A') (A') (A") (A') (A') (A") (A') (A") (A') (A")
                 (A') (A') (A") (A') (A') (A') (A') (A") (A') (A')
                 (A") (A') (A') (A") (A') (A") (A') (A") (A') (A')
                 (A') (A') (A') (A") (A') (A") (A') (A") (A') (A")
                 (A') (A') (A') (A') (A") (A') (A') (A") (A") (A')
                 (A") (A") (A') (A') (A') (A") (A') (A') (A") (A')
                 (A") (A') (A") (A') (A') (A') (A") (A") (A') (A')
                 (A') (A') (A') (A") (A') (A') (A") (A') (A") (A")
                 (A') (A') (A") (A') (A') (A') (A") (A') (A") (A')
                 (A') (A') (A") (A") (A') (A') (A') (A") (A") (A")
                 (A') (A') (A') (A') (A') (A') (A") (A') (A") (A')
                 (A') (A") (A') (A") (A') (A') (A') (A') (A')
 The electronic state of the initial guess is 1-A'.
 Generating alternative initial guess.
 ExpMin= 3.60D-02 ExpMax= 8.59D+03 ExpMxC= 1.30D+03 IAcc=3 IRadAn=         5 AccDes= 0.00D+00
 Harris functional with IExCor=  402 and IRadAn=       5 diagonalized for initial guess.
 HarFok:  IExCor=  402 AccDes= 0.00D+00 IRadAn=         5 IDoV= 1 UseB2=F ITyADJ=14
 ICtDFT=  3500011 ScaDFX=  1.000000  1.000000  1.000000  1.000000
 FoFCou: FMM=F IPFlag=           0 FMFlag=      100000 FMFlg1=           0
         NFxFlg=           0 DoJE=T BraDBF=F KetDBF=T FulRan=T
         wScrn=  0.000000 ICntrl=       500 IOpCl=  0 I1Cent=   200000004 NGrid=           0
         NMat0=    1 NMatS0=      1 NMatT0=    0 NMatD0=    1 NMtDS0=    0 NMtDT0=    0
 Petite list used in FoFCou.
 Harris En= -169.961423506208    
 Leave Link  401 at Tue Jan 26 00:25:19 2021, MaxMem=  6291456000 cpu:               6.8 elap:               0.4
 (Enter /home/orgChemistry/bin/gaussian16-C.01/g16/l502.exe)
 Keep R1 ints in memory in symmetry-blocked form, NReq=163318983.
 FoFCou: FMM=F IPFlag=           0 FMFlag=           0 FMFlg1=           0
         NFxFlg=           0 DoJE=F BraDBF=F KetDBF=F FulRan=T
         wScrn=  0.000000 ICntrl=       600 IOpCl=  0 I1Cent=           0 NGrid=           0
         NMat0=    1 NMatS0=  14706 NMatT0=    0 NMatD0=    1 NMtDS0=    0 NMtDT0=    0
 Petite list used in FoFCou.
 Closed shell SCF:
 Using DIIS extrapolation, IDIIS=  1040.
 NGot=  6291456000 LenX=  6236198572 LenY=  6236161267
 Requested convergence on RMS density matrix=1.00D-08 within 128 cycles.
 Requested convergence on MAX density matrix=1.00D-06.
 Requested convergence on             energy=1.00D-06.
 No special actions if energy rises.

 Cycle   1  Pass 1  IDiag  1:
 E= -169.935080562359    
 DIIS: error= 7.16D-03 at cycle   1 NSaved=   1.
 NSaved= 1 IEnMin= 1 EnMin= -169.935080562359     IErMin= 1 ErrMin= 7.16D-03
 ErrMax= 7.16D-03  0.00D+00 EMaxC= 1.00D-01 BMatC= 1.00D-02 BMatP= 1.00D-02
 IDIUse=3 WtCom= 9.28D-01 WtEn= 7.16D-02
 Coeff-Com:  0.100D+01
 Coeff-En:   0.100D+01
 Coeff:      0.100D+01
 Gap=     0.322 Goal=   None    Shift=    0.000
 GapD=    0.322 DampG=1.000 DampE=1.000 DampFc=1.0000 IDamp=-1.
 RMSDP=8.08D-04 MaxDP=5.16D-02              OVMax= 2.82D-02

 Cycle   2  Pass 1  IDiag  1:
 E= -169.940468665466     Delta-E=       -0.005388103108 Rises=F Damp=F
 DIIS: error= 2.02D-03 at cycle   2 NSaved=   2.
 NSaved= 2 IEnMin= 2 EnMin= -169.940468665466     IErMin= 2 ErrMin= 2.02D-03
 ErrMax= 2.02D-03  0.00D+00 EMaxC= 1.00D-01 BMatC= 8.36D-04 BMatP= 1.00D-02
 IDIUse=3 WtCom= 9.80D-01 WtEn= 2.02D-02
 Coeff-Com:  0.927D-01 0.907D+00
 Coeff-En:   0.000D+00 0.100D+01
 Coeff:      0.909D-01 0.909D+00
 Gap=     0.259 Goal=   None    Shift=    0.000
 RMSDP=2.35D-04 MaxDP=1.11D-02 DE=-5.39D-03 OVMax= 2.31D-02

 Cycle   3  Pass 1  IDiag  1:
 E= -169.939728174070     Delta-E=        0.000740491397 Rises=F Damp=F
 DIIS: error= 3.32D-03 at cycle   3 NSaved=   3.
 NSaved= 3 IEnMin= 2 EnMin= -169.940468665466     IErMin= 2 ErrMin= 2.02D-03
 ErrMax= 3.32D-03  0.00D+00 EMaxC= 1.00D-01 BMatC= 1.73D-03 BMatP= 8.36D-04
 IDIUse=3 WtCom= 1.48D-01 WtEn= 8.52D-01
 Coeff-Com: -0.111D-01 0.597D+00 0.414D+00
 Coeff-En:   0.000D+00 0.650D+00 0.350D+00
 Coeff:     -0.164D-02 0.642D+00 0.359D+00
 Gap=     0.269 Goal=   None    Shift=    0.000
 RMSDP=1.33D-04 MaxDP=5.69D-03 DE= 7.40D-04 OVMax= 1.49D-02

 Cycle   4  Pass 1  IDiag  1:
 E= -169.941105829205     Delta-E=       -0.001377655136 Rises=F Damp=F
 DIIS: error= 5.55D-04 at cycle   4 NSaved=   4.
 NSaved= 4 IEnMin= 4 EnMin= -169.941105829205     IErMin= 4 ErrMin= 5.55D-04
 ErrMax= 5.55D-04  0.00D+00 EMaxC= 1.00D-01 BMatC= 4.76D-05 BMatP= 8.36D-04
 IDIUse=3 WtCom= 9.94D-01 WtEn= 5.55D-03
 Coeff-Com: -0.102D-01 0.332D+00 0.188D+00 0.489D+00
 Coeff-En:   0.000D+00 0.000D+00 0.000D+00 0.100D+01
 Coeff:     -0.101D-01 0.331D+00 0.187D+00 0.492D+00
 Gap=     0.270 Goal=   None    Shift=    0.000
 RMSDP=2.63D-05 MaxDP=1.07D-03 DE=-1.38D-03 OVMax= 1.70D-03

 Cycle   5  Pass 1  IDiag  1:
 E= -169.941140638637     Delta-E=       -0.000034809431 Rises=F Damp=F
 DIIS: error= 1.76D-04 at cycle   5 NSaved=   5.
 NSaved= 5 IEnMin= 5 EnMin= -169.941140638637     IErMin= 5 ErrMin= 1.76D-04
 ErrMax= 1.76D-04  0.00D+00 EMaxC= 1.00D-01 BMatC= 2.51D-06 BMatP= 4.76D-05
 IDIUse=3 WtCom= 9.98D-01 WtEn= 1.76D-03
 Coeff-Com: -0.335D-02 0.831D-01 0.398D-01 0.230D+00 0.650D+00
 Coeff-En:   0.000D+00 0.000D+00 0.000D+00 0.000D+00 0.100D+01
 Coeff:     -0.334D-02 0.829D-01 0.397D-01 0.230D+00 0.651D+00
 Gap=     0.270 Goal=   None    Shift=    0.000
 RMSDP=6.09D-06 MaxDP=2.68D-04 DE=-3.48D-05 OVMax= 4.21D-04

 Cycle   6  Pass 1  IDiag  1:
 E= -169.941141927763     Delta-E=       -0.000001289126 Rises=F Damp=F
 DIIS: error= 5.91D-05 at cycle   6 NSaved=   6.
 NSaved= 6 IEnMin= 6 EnMin= -169.941141927763     IErMin= 6 ErrMin= 5.91D-05
 ErrMax= 5.91D-05  0.00D+00 EMaxC= 1.00D-01 BMatC= 5.20D-07 BMatP= 2.51D-06
 IDIUse=1 WtCom= 1.00D+00 WtEn= 0.00D+00
 Coeff-Com: -0.532D-03 0.448D-02-0.217D-02 0.677D-01 0.372D+00 0.559D+00
 Coeff:     -0.532D-03 0.448D-02-0.217D-02 0.677D-01 0.372D+00 0.559D+00
 Gap=     0.270 Goal=   None    Shift=    0.000
 RMSDP=2.79D-06 MaxDP=1.28D-04 DE=-1.29D-06 OVMax= 2.01D-04

 Cycle   7  Pass 1  IDiag  1:
 E= -169.941142331032     Delta-E=       -0.000000403269 Rises=F Damp=F
 DIIS: error= 7.30D-06 at cycle   7 NSaved=   7.
 NSaved= 7 IEnMin= 7 EnMin= -169.941142331032     IErMin= 7 ErrMin= 7.30D-06
 ErrMax= 7.30D-06  0.00D+00 EMaxC= 1.00D-01 BMatC= 8.28D-09 BMatP= 5.20D-07
 IDIUse=1 WtCom= 1.00D+00 WtEn= 0.00D+00
 Coeff-Com:  0.539D-04-0.508D-02-0.431D-02 0.592D-02 0.722D-01 0.180D+00
 Coeff-Com:  0.751D+00
 Coeff:      0.539D-04-0.508D-02-0.431D-02 0.592D-02 0.722D-01 0.180D+00
 Coeff:      0.751D+00
 Gap=     0.270 Goal=   None    Shift=    0.000
 RMSDP=4.14D-07 MaxDP=9.00D-06 DE=-4.03D-07 OVMax= 2.63D-05

 Cycle   8  Pass 1  IDiag  1:
 E= -169.941142337784     Delta-E=       -0.000000006752 Rises=F Damp=F
 DIIS: error= 4.43D-07 at cycle   8 NSaved=   8.
 NSaved= 8 IEnMin= 8 EnMin= -169.941142337784     IErMin= 8 ErrMin= 4.43D-07
 ErrMax= 4.43D-07  0.00D+00 EMaxC= 1.00D-01 BMatC= 2.73D-11 BMatP= 8.28D-09
 IDIUse=1 WtCom= 1.00D+00 WtEn= 0.00D+00
 Coeff-Com:  0.125D-04-0.506D-03-0.365D-03-0.518D-03 0.165D-02 0.106D-01
 Coeff-Com:  0.782D-01 0.911D+00
 Coeff:      0.125D-04-0.506D-03-0.365D-03-0.518D-03 0.165D-02 0.106D-01
 Coeff:      0.782D-01 0.911D+00
 Gap=     0.270 Goal=   None    Shift=    0.000
 RMSDP=4.67D-08 MaxDP=1.04D-06 DE=-6.75D-09 OVMax= 3.14D-06

 Cycle   9  Pass 1  IDiag  1:
 E= -169.941142337812     Delta-E=       -0.000000000028 Rises=F Damp=F
 DIIS: error= 2.14D-07 at cycle   9 NSaved=   9.
 NSaved= 9 IEnMin= 9 EnMin= -169.941142337812     IErMin= 9 ErrMin= 2.14D-07
 ErrMax= 2.14D-07  0.00D+00 EMaxC= 1.00D-01 BMatC= 4.01D-12 BMatP= 2.73D-11
 IDIUse=1 WtCom= 1.00D+00 WtEn= 0.00D+00
 Coeff-Com:  0.283D-05-0.538D-04-0.301D-04-0.315D-03-0.150D-02-0.142D-02
 Coeff-Com:  0.463D-02 0.287D+00 0.711D+00
 Coeff:      0.283D-05-0.538D-04-0.301D-04-0.315D-03-0.150D-02-0.142D-02
 Coeff:      0.463D-02 0.287D+00 0.711D+00
 Gap=     0.270 Goal=   None    Shift=    0.000
 RMSDP=1.14D-08 MaxDP=3.39D-07 DE=-2.84D-11 OVMax= 7.18D-07

 Cycle  10  Pass 1  IDiag  1:
 E= -169.941142337816     Delta-E=       -0.000000000004 Rises=F Damp=F
 DIIS: error= 2.74D-08 at cycle  10 NSaved=  10.
 NSaved=10 IEnMin=10 EnMin= -169.941142337816     IErMin=10 ErrMin= 2.74D-08
 ErrMax= 2.74D-08  0.00D+00 EMaxC= 1.00D-01 BMatC= 1.06D-13 BMatP= 4.01D-12
 IDIUse=1 WtCom= 1.00D+00 WtEn= 0.00D+00
 Coeff-Com: -0.215D-06 0.194D-04 0.973D-05 0.129D-04-0.289D-03-0.663D-03
 Coeff-Com: -0.340D-02-0.608D-02 0.744D-01 0.936D+00
 Coeff:     -0.215D-06 0.194D-04 0.973D-05 0.129D-04-0.289D-03-0.663D-03
 Coeff:     -0.340D-02-0.608D-02 0.744D-01 0.936D+00
 Gap=     0.270 Goal=   None    Shift=    0.000
 RMSDP=2.08D-09 MaxDP=5.83D-08 DE=-3.87D-12 OVMax= 1.28D-07

 SCF Done:  E(RB3LYP) =  -169.941142338     A.U. after   10 cycles
            NFock= 10  Conv=0.21D-08     -V/T= 2.0037
 KE= 1.693157385651D+02 PE=-5.408082262689D+02 EE= 1.304532439020D+02
 Leave Link  502 at Tue Jan 26 00:25:22 2021, MaxMem=  6291456000 cpu:              38.6 elap:               2.2
 (Enter /home/orgChemistry/bin/gaussian16-C.01/g16/l701.exe)
 ... and contract with generalized density number  0.
 Compute integral first derivatives.
 Leave Link  701 at Tue Jan 26 00:25:22 2021, MaxMem=  6291456000 cpu:               2.9 elap:               0.2
 (Enter /home/orgChemistry/bin/gaussian16-C.01/g16/l702.exe)
 L702 exits ... SP integral derivatives will be done elsewhere.
 Leave Link  702 at Tue Jan 26 00:25:22 2021, MaxMem=  6291456000 cpu:               0.7 elap:               0.1
 (Enter /home/orgChemistry/bin/gaussian16-C.01/g16/l703.exe)
 Integral derivatives from FoFJK, PRISM(SPDF).
 Compute integral first derivatives, UseDBF=F ICtDFT=           0.
 Calling FoFJK, ICntrl=      2127 FMM=F ISym2X=1 I1Cent= 0 IOpClX= 0 NMat=1 NMatS=1 NMatT=0.
 FoFJK:  IHMeth= 1 ICntrl=    2127 DoSepK=F KAlg= 0 I1Cent=           0 FoldK=F
 IRaf=         0 NMat=       1 IRICut=       1 DoRegI=T DoRafI=F ISym2E= 1 IDoP0=0 IntGTp=1.
 FoFCou: FMM=F IPFlag=           0 FMFlag=      100000 FMFlg1=         800
         NFxFlg=           0 DoJE=F BraDBF=F KetDBF=F FulRan=T
         wScrn=  0.000000 ICntrl=      2127 IOpCl=  0 I1Cent=           0 NGrid=           0
         NMat0=    1 NMatS0=      1 NMatT0=    0 NMatD0=    1 NMtDS0=    0 NMtDT0=    0
 Petite list used in FoFCou.
 Leave Link  703 at Tue Jan 26 00:25:23 2021, MaxMem=  6291456000 cpu:              21.1 elap:               0.9
 (Enter /home/orgChemistry/bin/gaussian16-C.01/g16/l716.exe)
 Dipole        = 1.13784954D+00 9.92167782D-02-1.01011218D-17
 ***** Axes restored to original set *****
 -------------------------------------------------------------------
 Center     Atomic                   Forces (Hartrees/Bohr)
 Number     Number              X              Y              Z
 -------------------------------------------------------------------
      1        6          -0.001167558   -0.006896546   -0.000045234
      2        7           0.000733608   -0.002982488   -0.000046837
      3        8           0.000874928    0.007981106    0.000062835
      4        1          -0.004270912    0.001272093    0.000107142
      5        1           0.004338206    0.003619566   -0.000058303
      6        1          -0.000508272   -0.002993731   -0.000019604
 -------------------------------------------------------------------
 Cartesian Forces:  Max     0.007981106 RMS     0.003195891
 Leave Link  716 at Tue Jan 26 00:25:23 2021, MaxMem=  6291456000 cpu:               0.6 elap:               0.1
 (Enter /home/orgChemistry/bin/gaussian16-C.01/g16/l103.exe)

 GradGradGradGradGradGradGradGradGradGradGradGradGradGradGradGradGradGrad
 Berny optimization.
 Using GEDIIS/GDIIS optimizer.
 FormGI is forming the generalized inverse of G from B-inverse, IUseBI=4.
 Internal  Forces:  Max     0.005630124 RMS     0.003178850
 Search for a local minimum.
 Step number   2 out of a maximum of   24
 All quantities printed in internal units (Hartrees-Bohrs-Radians)
 RMS Force = .31789D-02 SwitMx=.10000D-02 MixMth= 1
 Mixed Optimization -- RFO/linear search
 Update second derivatives using D2CorX and points    1    2
 DE= -6.93D-03 DEPred=-6.98D-03 R= 9.93D-01
 TightC=F SS=  1.41D+00  RLast= 2.47D-01 DXNew= 5.0454D-01 7.4057D-01
 Trust test= 9.93D-01 RLast= 2.47D-01 DXMaxT set to 5.05D-01
 The second derivative matrix:
                          R1        R2        R3        R4        R5
           R1           0.75230
           R2           0.01602   0.55328
           R3           0.00922   0.00036   0.35388
           R4           0.02509   0.00603   0.00395   0.44187
           R5           0.00137   0.00178   0.00096   0.00204   0.53986
           A1          -0.00441  -0.00738  -0.00394  -0.00798   0.00035
           A2           0.02430   0.00170   0.00171   0.01106   0.00244
           A3           0.00312   0.00405   0.00219   0.00466  -0.00011
           A4           0.01789   0.01029   0.00589   0.01578   0.00079
           A5          -0.00686   0.00794   0.00384   0.00400  -0.00163
           D1          -0.00000  -0.00000  -0.00000  -0.00000  -0.00000
           D2          -0.00000  -0.00000  -0.00000  -0.00000  -0.00000
           D3           0.00000   0.00000   0.00000   0.00000   0.00000
           D4           0.00000   0.00000   0.00000   0.00000   0.00000
                          A1        A2        A3        A4        A5
           A1           0.24799
           A2          -0.00997   0.16546
           A3           0.00079   0.00557   0.15974
           A4          -0.00246   0.01549   0.00180   0.17096
           A5           0.00736   0.00916  -0.00372  -0.00479   0.14666
           D1           0.00000  -0.00000  -0.00000  -0.00000  -0.00000
           D2           0.00000  -0.00000  -0.00000  -0.00000  -0.00000
           D3          -0.00000   0.00000   0.00000   0.00000   0.00000
           D4          -0.00000   0.00000   0.00000   0.00000   0.00000
                          D1        D2        D3        D4
           D1           0.03247
           D2           0.00000   0.03247
           D3          -0.00000  -0.00000   0.02374
           D4          -0.00000  -0.00000   0.00000   0.02374
 ITU=  1  0
 Use linear search instead of GDIIS.
     Eigenvalues ---    0.02374   0.02821   0.03247   0.13785   0.16000
     Eigenvalues ---    0.17203   0.22813   0.35385   0.44125   0.53968
     Eigenvalues ---    0.55296   0.75758
 RFO step:  Lambda=-5.47447691D-04 EMin= 2.37444266D-02
 Quartic linear search produced a step of  0.02193.
 Iteration  1 RMS(Cart)=  0.02136889 RMS(Int)=  0.00038479
 Iteration  2 RMS(Cart)=  0.00032692 RMS(Int)=  0.00000002
 Iteration  3 RMS(Cart)=  0.00000003 RMS(Int)=  0.00000001
 ITry= 1 IFail=0 DXMaxC= 5.47D-02 DCOld= 1.00D+10 DXMaxT= 5.05D-01 DXLimC= 3.00D+00 Rises=F
 ClnCor:  largest displacement from symmetrization is 9.85D-09 for atom     3.
 Variable       Old X    -DE/DX   Delta X   Delta X   Delta X     New X
                                 (Linear)    (Quad)   (Total)
    R1        2.36773   0.00439  -0.00122   0.00529   0.00407   2.37180
    R2        2.55323   0.00482   0.00011   0.00897   0.00908   2.56231
    R3        2.05151   0.00262   0.00000   0.00756   0.00756   2.05907
    R4        1.91587   0.00563  -0.00070   0.01296   0.01227   1.92813
    R5        1.81873  -0.00009  -0.00019  -0.00031  -0.00050   1.81823
    A1        2.17838  -0.00105   0.00172  -0.00376  -0.00204   2.17634
    A2        2.07587   0.00423  -0.00025   0.02579   0.02554   2.10140
    A3        2.02893  -0.00318  -0.00146  -0.02203  -0.02350   2.00544
    A4        1.94995   0.00091  -0.00356   0.00373   0.00018   1.95013
    A5        1.96410  -0.00552  -0.00307  -0.03693  -0.04001   1.92409
    D1        0.00000   0.00000   0.00000   0.00000  -0.00000   0.00000
    D2        3.14159   0.00000   0.00000   0.00000   0.00000   3.14159
    D3        3.14159   0.00000   0.00000   0.00000   0.00000   3.14159
    D4       -0.00000   0.00000   0.00000   0.00000   0.00000   0.00000
         Item               Value     Threshold  Converged?
 Maximum Force            0.005630     0.000450     NO 
 RMS     Force            0.003179     0.000300     NO 
 Maximum Displacement     0.054689     0.001800     NO 
 RMS     Displacement     0.021437     0.001200     NO 
 Predicted change in Energy=-2.802986D-04
 Lowest energy point so far.  Saving SCF results.
 GradGradGradGradGradGradGradGradGradGradGradGradGradGradGradGradGradGrad

 Leave Link  103 at Tue Jan 26 00:25:23 2021, MaxMem=  6291456000 cpu:               2.2 elap:               0.2
 (Enter /home/orgChemistry/bin/gaussian16-C.01/g16/l202.exe)
                          Input orientation:                          
 ---------------------------------------------------------------------
 Center     Atomic      Atomic             Coordinates (Angstroms)
 Number     Number       Type             X           Y           Z
 ---------------------------------------------------------------------
      1          6           0       -2.415999    0.735320   -0.001494
      2          7           0       -1.266680    0.231917   -0.031983
      3          8           0       -2.675467    2.066037    0.017910
      4          1           0       -3.297993    0.095651    0.011350
      5          1           0       -0.540428    0.948537   -0.040605
      6          1           0       -3.625006    2.219769    0.040403
 ---------------------------------------------------------------------
                    Distance matrix (angstroms):
                    1          2          3          4          5
     1  C    0.000000
     2  N    1.255101   0.000000
     3  O    1.355916   2.313260   0.000000
     4  H    1.089613   2.036340   2.066399   0.000000
     5  H    1.888057   1.020324   2.410524   2.886915   0.000000
     6  H    1.914952   3.085206   0.962166   2.149339   3.337247
                    6
     6  H    0.000000
 Stoichiometry    CH3NO
 Framework group  CS[SG(CH3NO)]
 Deg. of freedom     9
 Full point group                 CS      NOp   2
 RotChk:  IX=2 Diff= 2.92D-04
 Largest Abelian subgroup         CS      NOp   2
 Largest concise Abelian subgroup C1      NOp   1
                         Standard orientation:                         
 ---------------------------------------------------------------------
 Center     Atomic      Atomic             Coordinates (Angstroms)
 Number     Number       Type             X           Y           Z
 ---------------------------------------------------------------------
      1          6           0        0.000000    0.416712   -0.000000
      2          7           0       -1.230022    0.167064   -0.000000
      3          8           0        0.978127   -0.522317    0.000000
      4          1           0        0.353459    1.447402   -0.000000
      5          1           0       -1.411776   -0.836941   -0.000000
      6          1           0        1.843460   -0.101648    0.000000
 ---------------------------------------------------------------------
 Rotational constants (GHZ):          71.6025704          11.3219890           9.7761570
 Leave Link  202 at Tue Jan 26 00:25:23 2021, MaxMem=  6291456000 cpu:               0.4 elap:               0.0
 (Enter /home/orgChemistry/bin/gaussian16-C.01/g16/l301.exe)
 Standard basis: 6-311++G(3df,3pd) (5D, 7F)
 Ernie: Thresh=  0.10000D-02 Tol=  0.10000D-05 Strict=F.
 There are   135 symmetry adapted cartesian basis functions of A'  symmetry.
 There are    57 symmetry adapted cartesian basis functions of A"  symmetry.
 There are   117 symmetry adapted basis functions of A'  symmetry.
 There are    54 symmetry adapted basis functions of A"  symmetry.
   171 basis functions,   237 primitive gaussians,   192 cartesian basis functions
    12 alpha electrons       12 beta electrons
       nuclear repulsion energy        70.9483219943 Hartrees.
 IExCor=  402 DFT=T Ex+Corr=B3LYP ExCW=0 ScaHFX=  0.200000
 ScaDFX=  0.800000  0.720000  1.000000  0.810000 ScalE2=  1.000000  1.000000
 IRadAn=      5 IRanWt=     -1 IRanGd=            0 ICorTp=0 IEmpDi=  4
 NAtoms=    6 NActive=    6 NUniq=    6 SFac= 1.00D+00 NAtFMM=   60 NAOKFM=F Big=F
 Integral buffers will be    131072 words long.
 Raffenetti 2 integral format.
 Two-electron integral symmetry is turned on.
 Leave Link  301 at Tue Jan 26 00:25:23 2021, MaxMem=  6291456000 cpu:               1.5 elap:               0.1
 (Enter /home/orgChemistry/bin/gaussian16-C.01/g16/l302.exe)
 NPDir=0 NMtPBC=     1 NCelOv=     1 NCel=       1 NClECP=     1 NCelD=      1
         NCelK=      1 NCelE2=     1 NClLst=     1 CellRange=     0.0.
 One-electron integrals computed using PRISM.
 One-electron integral symmetry used in STVInt
 NBasis=   171 RedAO= T EigKep=  2.14D-04  NBF=   117    54
 NBsUse=   171 1.00D-06 EigRej= -1.00D+00 NBFU=   117    54
 Precomputing XC quadrature grid using
 IXCGrd= 4 IRadAn=           5 IRanWt=          -1 IRanGd=           0 AccXCQ= 0.00D+00.
 Generated NRdTot=       0 NPtTot=           0 NUsed=           0 NTot=          32
 NSgBfM=   192   192   192   192   192 MxSgAt=     6 MxSgA2=     6.
 Leave Link  302 at Tue Jan 26 00:25:23 2021, MaxMem=  6291456000 cpu:               3.0 elap:               0.2
 (Enter /home/orgChemistry/bin/gaussian16-C.01/g16/l303.exe)
 DipDrv:  MaxL=1.
 Leave Link  303 at Tue Jan 26 00:25:24 2021, MaxMem=  6291456000 cpu:               0.5 elap:               0.1
 (Enter /home/orgChemistry/bin/gaussian16-C.01/g16/l401.exe)
 Initial guess from the checkpoint file:  "file_name.chk"
 B after Tr=    -0.000000   -0.000000   -0.000000
         Rot=    1.000000    0.000000   -0.000000    0.000634 Ang=   0.07 deg.
 Guess basis will be translated and rotated to current coordinates.
 JPrj=2 DoOrth=T DoCkMO=T.
 Initial guess orbital symmetries:
       Occupied  (A') (A') (A') (A') (A') (A') (A') (A') (A") (A')
                 (A") (A')
       Virtual   (A') (A") (A') (A') (A") (A') (A') (A') (A') (A')
                 (A') (A") (A') (A') (A") (A') (A') (A') (A') (A")
                 (A') (A') (A") (A') (A") (A') (A') (A") (A') (A')
                 (A") (A') (A') (A') (A") (A') (A') (A') (A") (A')
                 (A') (A") (A') (A') (A') (A") (A') (A") (A') (A")
                 (A') (A') (A") (A') (A') (A') (A') (A") (A') (A')
                 (A") (A') (A") (A') (A') (A") (A') (A") (A') (A')
                 (A') (A') (A') (A") (A') (A") (A') (A") (A') (A')
                 (A") (A') (A') (A") (A') (A') (A') (A") (A") (A')
                 (A") (A") (A') (A') (A') (A') (A") (A") (A') (A')
                 (A') (A") (A") (A') (A') (A") (A') (A') (A") (A')
                 (A') (A') (A') (A") (A') (A') (A") (A") (A') (A")
                 (A') (A') (A') (A") (A') (A") (A') (A') (A") (A')
                 (A') (A') (A") (A") (A') (A') (A') (A") (A") (A")
                 (A') (A') (A') (A') (A') (A') (A") (A') (A") (A')
                 (A') (A") (A') (A") (A') (A') (A') (A') (A')
 The electronic state of the initial guess is 1-A'.
 Generating alternative initial guess.
 ExpMin= 3.60D-02 ExpMax= 8.59D+03 ExpMxC= 1.30D+03 IAcc=3 IRadAn=         5 AccDes= 0.00D+00
 Harris functional with IExCor=  402 and IRadAn=       5 diagonalized for initial guess.
 HarFok:  IExCor=  402 AccDes= 0.00D+00 IRadAn=         5 IDoV= 1 UseB2=F ITyADJ=14
 ICtDFT=  3500011 ScaDFX=  1.000000  1.000000  1.000000  1.000000
 FoFCou: FMM=F IPFlag=           0 FMFlag=      100000 FMFlg1=           0
         NFxFlg=           0 DoJE=T BraDBF=F KetDBF=T FulRan=T
         wScrn=  0.000000 ICntrl=       500 IOpCl=  0 I1Cent=   200000004 NGrid=           0
         NMat0=    1 NMatS0=      1 NMatT0=    0 NMatD0=    1 NMtDS0=    0 NMtDT0=    0
 Petite list used in FoFCou.
 Harris En= -169.960539137393    
 Leave Link  401 at Tue Jan 26 00:25:24 2021, MaxMem=  6291456000 cpu:               6.8 elap:               0.3
 (Enter /home/orgChemistry/bin/gaussian16-C.01/g16/l502.exe)
 Keep R1 ints in memory in symmetry-blocked form, NReq=163318983.
 FoFCou: FMM=F IPFlag=           0 FMFlag=           0 FMFlg1=           0
         NFxFlg=           0 DoJE=F BraDBF=F KetDBF=F FulRan=T
         wScrn=  0.000000 ICntrl=       600 IOpCl=  0 I1Cent=           0 NGrid=           0
         NMat0=    1 NMatS0=  14706 NMatT0=    0 NMatD0=    1 NMtDS0=    0 NMtDT0=    0
 Petite list used in FoFCou.
 Closed shell SCF:
 Using DIIS extrapolation, IDIIS=  1040.
 NGot=  6291456000 LenX=  6236198572 LenY=  6236161267
 Requested convergence on RMS density matrix=1.00D-08 within 128 cycles.
 Requested convergence on MAX density matrix=1.00D-06.
 Requested convergence on             energy=1.00D-06.
 No special actions if energy rises.

 Cycle   1  Pass 1  IDiag  1:
 E= -169.941181794808    
 DIIS: error= 2.54D-03 at cycle   1 NSaved=   1.
 NSaved= 1 IEnMin= 1 EnMin= -169.941181794808     IErMin= 1 ErrMin= 2.54D-03
 ErrMax= 2.54D-03  0.00D+00 EMaxC= 1.00D-01 BMatC= 4.89D-04 BMatP= 4.89D-04
 IDIUse=3 WtCom= 9.75D-01 WtEn= 2.54D-02
 Coeff-Com:  0.100D+01
 Coeff-En:   0.100D+01
 Coeff:      0.100D+01
 Gap=     0.285 Goal=   None    Shift=    0.000
 GapD=    0.285 DampG=1.000 DampE=1.000 DampFc=1.0000 IDamp=-1.
 RMSDP=1.23D-04 MaxDP=2.84D-03              OVMax= 4.70D-03

 Cycle   2  Pass 1  IDiag  1:
 E= -169.941418543595     Delta-E=       -0.000236748787 Rises=F Damp=F
 DIIS: error= 2.50D-04 at cycle   2 NSaved=   2.
 NSaved= 2 IEnMin= 2 EnMin= -169.941418543595     IErMin= 2 ErrMin= 2.50D-04
 ErrMax= 2.50D-04  0.00D+00 EMaxC= 1.00D-01 BMatC= 5.47D-06 BMatP= 4.89D-04
 IDIUse=3 WtCom= 9.97D-01 WtEn= 2.50D-03
 Coeff-Com: -0.447D-02 0.100D+01
 Coeff-En:   0.000D+00 0.100D+01
 Coeff:     -0.446D-02 0.100D+01
 Gap=     0.271 Goal=   None    Shift=    0.000
 RMSDP=2.04D-05 MaxDP=5.76D-04 DE=-2.37D-04 OVMax= 1.89D-03

 Cycle   3  Pass 1  IDiag  1:
 E= -169.941412175862     Delta-E=        0.000006367732 Rises=F Damp=F
 DIIS: error= 4.44D-04 at cycle   3 NSaved=   3.
 NSaved= 3 IEnMin= 2 EnMin= -169.941418543595     IErMin= 2 ErrMin= 2.50D-04
 ErrMax= 4.44D-04  0.00D+00 EMaxC= 1.00D-01 BMatC= 1.51D-05 BMatP= 5.47D-06
 IDIUse=3 WtCom= 3.22D-01 WtEn= 6.78D-01
 Coeff-Com: -0.127D-01 0.643D+00 0.370D+00
 Coeff-En:   0.000D+00 0.695D+00 0.305D+00
 Coeff:     -0.407D-02 0.678D+00 0.326D+00
 Gap=     0.270 Goal=   None    Shift=    0.000
 RMSDP=1.07D-05 MaxDP=4.53D-04 DE= 6.37D-06 OVMax= 1.26D-03

 Cycle   4  Pass 1  IDiag  1:
 E= -169.941422942480     Delta-E=       -0.000010766617 Rises=F Damp=F
 DIIS: error= 2.76D-05 at cycle   4 NSaved=   4.
 NSaved= 4 IEnMin= 4 EnMin= -169.941422942480     IErMin= 4 ErrMin= 2.76D-05
 ErrMax= 2.76D-05  0.00D+00 EMaxC= 1.00D-01 BMatC= 1.52D-07 BMatP= 5.47D-06
 IDIUse=1 WtCom= 1.00D+00 WtEn= 0.00D+00
 Coeff-Com: -0.504D-02 0.181D+00 0.768D-01 0.747D+00
 Coeff:     -0.504D-02 0.181D+00 0.768D-01 0.747D+00
 Gap=     0.271 Goal=   None    Shift=    0.000
 RMSDP=2.24D-06 MaxDP=7.69D-05 DE=-1.08D-05 OVMax= 1.71D-04

 Cycle   5  Pass 1  IDiag  1:
 E= -169.941422964883     Delta-E=       -0.000000022403 Rises=F Damp=F
 DIIS: error= 2.89D-05 at cycle   5 NSaved=   5.
 NSaved= 5 IEnMin= 5 EnMin= -169.941422964883     IErMin= 4 ErrMin= 2.76D-05
 ErrMax= 2.89D-05  0.00D+00 EMaxC= 1.00D-01 BMatC= 1.19D-07 BMatP= 1.52D-07
 IDIUse=1 WtCom= 1.00D+00 WtEn= 0.00D+00
 Coeff-Com: -0.161D-02 0.351D-01 0.109D-02 0.486D+00 0.480D+00
 Coeff:     -0.161D-02 0.351D-01 0.109D-02 0.486D+00 0.480D+00
 Gap=     0.271 Goal=   None    Shift=    0.000
 RMSDP=1.25D-06 MaxDP=4.57D-05 DE=-2.24D-08 OVMax= 1.33D-04

 Cycle   6  Pass 1  IDiag  1:
 E= -169.941423057805     Delta-E=       -0.000000092922 Rises=F Damp=F
 DIIS: error= 4.48D-06 at cycle   6 NSaved=   6.
 NSaved= 6 IEnMin= 6 EnMin= -169.941423057805     IErMin= 6 ErrMin= 4.48D-06
 ErrMax= 4.48D-06  0.00D+00 EMaxC= 1.00D-01 BMatC= 2.84D-09 BMatP= 1.19D-07
 IDIUse=1 WtCom= 1.00D+00 WtEn= 0.00D+00
 Coeff-Com: -0.298D-04-0.804D-02-0.839D-02 0.108D+00 0.191D+00 0.718D+00
 Coeff:     -0.298D-04-0.804D-02-0.839D-02 0.108D+00 0.191D+00 0.718D+00
 Gap=     0.271 Goal=   None    Shift=    0.000
 RMSDP=2.28D-07 MaxDP=5.13D-06 DE=-9.29D-08 OVMax= 2.17D-05

 Cycle   7  Pass 1  IDiag  1:
 E= -169.941423060273     Delta-E=       -0.000000002468 Rises=F Damp=F
 DIIS: error= 6.12D-07 at cycle   7 NSaved=   7.
 NSaved= 7 IEnMin= 7 EnMin= -169.941423060273     IErMin= 7 ErrMin= 6.12D-07
 ErrMax= 6.12D-07  0.00D+00 EMaxC= 1.00D-01 BMatC= 3.41D-11 BMatP= 2.84D-09
 IDIUse=1 WtCom= 1.00D+00 WtEn= 0.00D+00
 Coeff-Com:  0.365D-04-0.310D-02-0.215D-02 0.136D-01 0.318D-01 0.183D+00
 Coeff-Com:  0.777D+00
 Coeff:      0.365D-04-0.310D-02-0.215D-02 0.136D-01 0.318D-01 0.183D+00
 Coeff:      0.777D+00
 Gap=     0.271 Goal=   None    Shift=    0.000
 RMSDP=2.99D-08 MaxDP=7.19D-07 DE=-2.47D-09 OVMax= 1.91D-06

 Cycle   8  Pass 1  IDiag  1:
 E= -169.941423060305     Delta-E=       -0.000000000032 Rises=F Damp=F
 DIIS: error= 8.36D-08 at cycle   8 NSaved=   8.
 NSaved= 8 IEnMin= 8 EnMin= -169.941423060305     IErMin= 8 ErrMin= 8.36D-08
 ErrMax= 8.36D-08  0.00D+00 EMaxC= 1.00D-01 BMatC= 9.20D-13 BMatP= 3.41D-11
 IDIUse=1 WtCom= 1.00D+00 WtEn= 0.00D+00
 Coeff-Com:  0.841D-05-0.412D-03-0.272D-03-0.629D-03 0.903D-03 0.165D-01
 Coeff-Com:  0.169D+00 0.815D+00
 Coeff:      0.841D-05-0.412D-03-0.272D-03-0.629D-03 0.903D-03 0.165D-01
 Coeff:      0.169D+00 0.815D+00
 Gap=     0.271 Goal=   None    Shift=    0.000
 RMSDP=4.79D-09 MaxDP=1.14D-07 DE=-3.21D-11 OVMax= 2.60D-07

 SCF Done:  E(RB3LYP) =  -169.941423060     A.U. after    8 cycles
            NFock=  8  Conv=0.48D-08     -V/T= 2.0039
 KE= 1.692877856836D+02 PE=-5.404853486026D+02 EE= 1.303078178644D+02
 Leave Link  502 at Tue Jan 26 00:25:26 2021, MaxMem=  6291456000 cpu:              32.4 elap:               1.8
 (Enter /home/orgChemistry/bin/gaussian16-C.01/g16/l701.exe)
 ... and contract with generalized density number  0.
 Compute integral first derivatives.
 Leave Link  701 at Tue Jan 26 00:25:26 2021, MaxMem=  6291456000 cpu:               7.1 elap:               0.4
 (Enter /home/orgChemistry/bin/gaussian16-C.01/g16/l702.exe)
 L702 exits ... SP integral derivatives will be done elsewhere.
 Leave Link  702 at Tue Jan 26 00:25:26 2021, MaxMem=  6291456000 cpu:               0.6 elap:               0.1
 (Enter /home/orgChemistry/bin/gaussian16-C.01/g16/l703.exe)
 Integral derivatives from FoFJK, PRISM(SPDF).
 Compute integral first derivatives, UseDBF=F ICtDFT=           0.
 Calling FoFJK, ICntrl=      2127 FMM=F ISym2X=1 I1Cent= 0 IOpClX= 0 NMat=1 NMatS=1 NMatT=0.
 FoFJK:  IHMeth= 1 ICntrl=    2127 DoSepK=F KAlg= 0 I1Cent=           0 FoldK=F
 IRaf=         0 NMat=       1 IRICut=       1 DoRegI=T DoRafI=F ISym2E= 1 IDoP0=0 IntGTp=1.
 FoFCou: FMM=F IPFlag=           0 FMFlag=      100000 FMFlg1=         800
         NFxFlg=           0 DoJE=F BraDBF=F KetDBF=F FulRan=T
         wScrn=  0.000000 ICntrl=      2127 IOpCl=  0 I1Cent=           0 NGrid=           0
         NMat0=    1 NMatS0=      1 NMatT0=    0 NMatD0=    1 NMtDS0=    0 NMtDT0=    0
 Petite list used in FoFCou.
 Leave Link  703 at Tue Jan 26 00:25:27 2021, MaxMem=  6291456000 cpu:              22.4 elap:               1.0
 (Enter /home/orgChemistry/bin/gaussian16-C.01/g16/l716.exe)
 Dipole        = 1.11885817D+00 1.15891852D-01 1.05967437D-17
 ***** Axes restored to original set *****
 -------------------------------------------------------------------
 Center     Atomic                   Forces (Hartrees/Bohr)
 Number     Number              X              Y              Z
 -------------------------------------------------------------------
      1        6           0.001787202   -0.004365804   -0.000084271
      2        7          -0.000539753    0.000166786    0.000013602
      3        8          -0.000723255    0.003281032    0.000049681
      4        1           0.000084455    0.000282505    0.000001046
      5        1          -0.000052555    0.000030540    0.000001472
      6        1          -0.000556095    0.000604939    0.000018470
 -------------------------------------------------------------------
 Cartesian Forces:  Max     0.004365804 RMS     0.001387197
 Leave Link  716 at Tue Jan 26 00:25:27 2021, MaxMem=  6291456000 cpu:               1.4 elap:               0.1
 (Enter /home/orgChemistry/bin/gaussian16-C.01/g16/l103.exe)

 GradGradGradGradGradGradGradGradGradGradGradGradGradGradGradGradGradGrad
 Berny optimization.
 Using GEDIIS/GDIIS optimizer.
 FormGI is forming the generalized inverse of G from B-inverse, IUseBI=4.
 Internal  Forces:  Max     0.004059385 RMS     0.001143306
 Search for a local minimum.
 Step number   3 out of a maximum of   24
 All quantities printed in internal units (Hartrees-Bohrs-Radians)
 RMS Force = .11433D-02 SwitMx=.10000D-02 MixMth= 1
 Mixed Optimization -- RFO/linear search
 Update second derivatives using D2CorX and points    1    2    3
 DE= -2.81D-04 DEPred=-2.80D-04 R= 1.00D+00
 TightC=F SS=  1.41D+00  RLast= 5.58D-02 DXNew= 8.4853D-01 1.6746D-01
 Trust test= 1.00D+00 RLast= 5.58D-02 DXMaxT set to 5.05D-01
 The second derivative matrix:
                          R1        R2        R3        R4        R5
           R1           0.75774
           R2          -0.00219   0.51592
           R3           0.01318  -0.01752   0.35609
           R4           0.02992  -0.02889   0.00600   0.44181
           R5          -0.00271   0.00322  -0.00235  -0.00359   0.54128
           A1          -0.00406  -0.00360  -0.00363  -0.00697   0.00079
           A2           0.02858  -0.02462   0.00371   0.01184  -0.00197
           A3           0.00136   0.03152   0.00264   0.00815   0.00351
           A4           0.01749   0.01160   0.00599   0.01594   0.00088
           A5          -0.01941   0.05167  -0.00370  -0.00482   0.00720
           D1           0.00000   0.00000   0.00000   0.00000  -0.00000
           D2          -0.00000  -0.00000   0.00000   0.00000  -0.00000
           D3           0.00000   0.00000   0.00000   0.00000  -0.00000
           D4           0.00000   0.00000   0.00000   0.00000  -0.00000
                          A1        A2        A3        A4        A5
           A1           0.24769
           A2          -0.00931   0.16668
           A3          -0.00012   0.00769   0.15444
           A4          -0.00233   0.01565   0.00131   0.17065
           A5           0.00708   0.00135  -0.00244  -0.00518   0.17049
           D1          -0.00000   0.00000  -0.00000  -0.00000  -0.00000
           D2           0.00000   0.00000  -0.00000  -0.00000  -0.00000
           D3          -0.00000   0.00000  -0.00000   0.00000  -0.00000
           D4          -0.00000   0.00000  -0.00000   0.00000  -0.00000
                          D1        D2        D3        D4
           D1           0.03247
           D2           0.00000   0.03247
           D3           0.00000   0.00000   0.02374
           D4           0.00000   0.00000   0.00000   0.02374
 ITU=  1  1  0
 Use linear search instead of GDIIS.
     Eigenvalues ---    0.02374   0.02833   0.03247   0.13811   0.16651
     Eigenvalues ---    0.17177   0.22859   0.35422   0.43244   0.53370
     Eigenvalues ---    0.54516   0.76386
 RFO step:  Lambda=-3.74212815D-05 EMin= 2.37444266D-02
 Quartic linear search produced a step of  0.00663.
 Iteration  1 RMS(Cart)=  0.00258429 RMS(Int)=  0.00000258
 Iteration  2 RMS(Cart)=  0.00000278 RMS(Int)=  0.00000001
 Iteration  3 RMS(Cart)=  0.00000001 RMS(Int)=  0.00000001
 ITry= 1 IFail=0 DXMaxC= 5.46D-03 DCOld= 1.00D+10 DXMaxT= 5.05D-01 DXLimC= 3.00D+00 Rises=F
 ClnCor:  largest displacement from symmetrization is 1.10D-08 for atom     2.
 Variable       Old X    -DE/DX   Delta X   Delta X   Delta X     New X
                                 (Linear)    (Quad)   (Total)
    R1        2.37180  -0.00062   0.00003  -0.00082  -0.00080   2.37100
    R2        2.56231   0.00406   0.00006   0.00790   0.00796   2.57027
    R3        2.05907  -0.00023   0.00005  -0.00023  -0.00018   2.05889
    R4        1.92813  -0.00002   0.00008   0.00055   0.00063   1.92877
    R5        1.81823   0.00065  -0.00000   0.00114   0.00114   1.81937
    A1        2.17634   0.00014  -0.00001   0.00079   0.00077   2.17712
    A2        2.10140   0.00012   0.00017   0.00226   0.00243   2.10383
    A3        2.00544  -0.00025  -0.00016  -0.00304  -0.00320   2.00224
    A4        1.95013  -0.00011   0.00000  -0.00129  -0.00129   1.94884
    A5        1.92409   0.00092  -0.00027   0.00301   0.00275   1.92684
    D1        0.00000  -0.00000   0.00000  -0.00000  -0.00000   0.00000
[...]
                                                                                         X                                           
                                                                                         X                                           
                                                                                         X                                           
                                                                                         X                                           
 
 ***** Axes restored to original set *****
 -------------------------------------------------------------------
 Center     Atomic                   Forces (Hartrees/Bohr)
 Number     Number              X              Y              Z
 -------------------------------------------------------------------
      1        6          -0.000015876   -0.000045927   -0.000000123
      2        7           0.000065734    0.000106419   -0.000000353
      3        8          -0.000052423   -0.000017310    0.000000976
      4        1           0.000038657    0.000036639   -0.000000474
      5        1          -0.000053612   -0.000099132    0.000000161
      6        1           0.000017519    0.000019310   -0.000000187
 -------------------------------------------------------------------
 Cartesian Forces:  Max     0.000106419 RMS     0.000045506
 Force constants in Cartesian coordinates: 
                1             2             3             4             5 
      1  0.985404D+00
      2 -0.576104D-01  0.593351D+00
      3 -0.187485D-01  0.571663D-02  0.161451D+00
      4 -0.589799D+00  0.186876D+00  0.133919D-01  0.850592D+00
      5  0.130754D+00 -0.166943D+00 -0.388717D-02 -0.295800D-01  0.419704D+00
      6  0.128146D-01 -0.512312D-02 -0.693262D-01 -0.174413D-01  0.422390D-02
      7 -0.121188D+00  0.345342D-01  0.206141D-02 -0.117837D-01  0.653411D-01
      8 -0.242703D-01 -0.278221D+00 -0.187793D-02  0.458616D-01 -0.363610D-01
      9  0.145648D-02 -0.317295D-02 -0.437794D-01  0.129184D-02 -0.207487D-02
     10 -0.220120D+00 -0.125402D+00  0.245521D-02 -0.354712D-01 -0.111310D-01
     11 -0.124615D+00 -0.142351D+00  0.179484D-02  0.137554D-01  0.123066D-01
     12  0.246331D-02  0.181218D-02 -0.500904D-01  0.931449D-03  0.367631D-03
     13 -0.437531D-01 -0.347062D-01  0.790912D-03 -0.215989D+00 -0.158205D+00
     14  0.238108D-01  0.188718D-02 -0.591091D-03 -0.216183D+00 -0.220109D+00
     15  0.139289D-02  0.697596D-03  0.834933D-02  0.173496D-02  0.159239D-02
     16 -0.105441D-01 -0.369145D-02  0.490756D-04  0.245081D-02  0.282117D-02
     17  0.519306D-01 -0.772200D-02 -0.115527D-02 -0.729621D-03 -0.859714D-02
     18  0.621273D-03  0.696627D-04 -0.660423D-02  0.911666D-04 -0.221874D-03
                6             7             8             9            10 
      6  0.728587D-01
      7  0.149223D-02  0.623196D+00
      8 -0.164588D-02 -0.113025D+00  0.397700D+00
      9  0.254034D-01 -0.144190D-01  0.636167D-02  0.216373D-01
     10  0.675436D-03  0.799346D-02  0.756457D-02  0.149803D-03  0.249009D+00
     11 -0.180429D-03 -0.199126D-01 -0.337341D-01 -0.243620D-04  0.129426D+00
     12  0.382026D-03 -0.132861D-03 -0.629478D-03  0.112586D-01 -0.357877D-02
     13  0.233139D-02  0.530279D-02 -0.169247D-02 -0.355408D-03 -0.355267D-02
     14  0.286921D-02  0.464687D-03  0.149678D-02  0.108500D-03  0.226618D-03
     15 -0.362450D-01 -0.333217D-03  0.156006D-03 -0.100361D-01  0.369089D-03
     16  0.127694D-03 -0.503521D+00  0.855614D-01  0.118762D-01  0.214102D-02
     17 -0.143677D-03  0.325976D-01 -0.508805D-01 -0.119799D-02 -0.683776D-03
     18  0.692706D-02  0.113314D-01 -0.236438D-02 -0.448380D-02 -0.707739D-04
               11            12            13            14            15 
     11  0.162419D+00
     12 -0.144737D-02  0.261100D-01
     13  0.355962D-02  0.403377D-03  0.256427D+00
     14  0.116187D-02 -0.127813D-03  0.191736D+00  0.215836D+00
     15 -0.201214D-03  0.130910D-01 -0.309910D-02 -0.227104D-02  0.261828D-01
     16 -0.221337D-02 -0.865092D-04  0.156459D-02 -0.551874D-04 -0.646154D-04
     17  0.197764D-03  0.248421D-04 -0.692228D-03 -0.272491D-03  0.262644D-04
     18  0.585276D-04 -0.751126D-03 -0.711688D-04  0.122352D-04 -0.134201D-02
               16            17            18 
     16  0.507908D+00
     17 -0.824226D-01  0.672744D-01
     18 -0.119019D-01  0.244583D-02  0.625411D-02
 FormGI is forming the generalized inverse of G from B-inverse, IUseBI=4.
 Force constants in internal coordinates: 
                1             2             3             4             5 
      1  0.754367D+00
      2  0.613322D-01  0.383612D+00
      3  0.193546D-01  0.128685D-01  0.342233D+00
      4  0.224750D-02 -0.181068D-02 -0.387507D-04  0.428070D+00
      5 -0.217861D-02  0.194181D-02  0.507322D-03 -0.117021D-02  0.522973D+00
      6  0.963808D-02  0.322718D-01 -0.132426D-01 -0.106378D-01  0.929530D-02
      7  0.228816D-01 -0.429546D-01  0.695043D-02  0.953921D-02 -0.145677D-02
      8 -0.325196D-01  0.106828D-01  0.629218D-02  0.109864D-02 -0.783854D-02
      9  0.605474D-01 -0.651390D-02  0.227473D-02  0.359303D-01 -0.226644D-02
     10  0.478034D-02  0.467461D-01  0.657836D-03 -0.910243D-03  0.143731D-01
     11  0.000000D+00  0.000000D+00  0.000000D+00  0.000000D+00  0.000000D+00
     12  0.000000D+00  0.000000D+00  0.000000D+00  0.000000D+00  0.000000D+00
     13  0.000000D+00  0.000000D+00  0.000000D+00  0.000000D+00  0.000000D+00
     14  0.000000D+00  0.000000D+00  0.000000D+00  0.000000D+00  0.000000D+00
                6             7             8             9            10 
      6  0.161456D+00
      7 -0.777228D-01  0.110675D+00
      8 -0.837337D-01 -0.329523D-01  0.116686D+00
      9 -0.167982D-01  0.142135D-01  0.258470D-02  0.164294D+00
     10  0.225849D-01 -0.111796D-01 -0.114053D-01 -0.367456D-03  0.173739D+00
     11  0.000000D+00  0.000000D+00  0.000000D+00  0.000000D+00  0.000000D+00
     12  0.000000D+00  0.000000D+00  0.000000D+00  0.000000D+00  0.000000D+00
     13  0.000000D+00  0.000000D+00  0.000000D+00  0.000000D+00  0.000000D+00
     14  0.000000D+00  0.000000D+00  0.000000D+00  0.000000D+00  0.000000D+00
               11            12            13            14 
     11  0.400492D-01
     12  0.296920D-02  0.377009D-01
     13 -0.206893D-01  0.175263D-01  0.244202D-01
     14  0.144335D-01 -0.153721D-01 -0.117780D-01  0.164542D-01
 Leave Link  716 at Tue Jan 26 00:25:54 2021, MaxMem=  6291456000 cpu:               1.8 elap:               0.1
 (Enter /home/orgChemistry/bin/gaussian16-C.01/g16/l103.exe)

 GradGradGradGradGradGradGradGradGradGradGradGradGradGradGradGradGradGrad
 Berny optimization.
 Red2BG is reusing G-inverse.
 Internal  Forces:  Max     0.000107683 RMS     0.000039146
 Search for a local minimum.
 Step number   1 out of a maximum of    2
 All quantities printed in internal units (Hartrees-Bohrs-Radians)
 Second derivative matrix not updated -- analytic derivatives used.
 The second derivative matrix:
                          R1        R2        R3        R4        R5
           R1           0.75437
           R2           0.06133   0.38361
           R3           0.01935   0.01287   0.34223
           R4           0.00225  -0.00181  -0.00004   0.42807
           R5          -0.00218   0.00194   0.00051  -0.00117   0.52297
           A1           0.00964   0.03227  -0.01324  -0.01064   0.00930
           A2           0.02288  -0.04295   0.00695   0.00954  -0.00146
           A3          -0.03252   0.01068   0.00629   0.00110  -0.00784
           A4           0.06055  -0.00651   0.00227   0.03593  -0.00227
           A5           0.00478   0.04675   0.00066  -0.00091   0.01437
           D1           0.00000  -0.00000  -0.00000  -0.00000   0.00000
           D2          -0.00000  -0.00000   0.00000  -0.00000  -0.00000
           D3          -0.00000  -0.00000   0.00000   0.00000   0.00000
           D4           0.00000  -0.00000  -0.00000  -0.00000   0.00000
                          A1        A2        A3        A4        A5
           A1           0.16146
           A2          -0.07772   0.11068
           A3          -0.08373  -0.03295   0.11669
           A4          -0.01680   0.01421   0.00258   0.16429
           A5           0.02258  -0.01118  -0.01141  -0.00037   0.17374
           D1           0.00000  -0.00000  -0.00000   0.00000  -0.00000
           D2          -0.00000   0.00000   0.00000  -0.00000   0.00000
           D3          -0.00000  -0.00000   0.00000  -0.00000  -0.00000
           D4           0.00000  -0.00000  -0.00000   0.00000  -0.00000
                          D1        D2        D3        D4
           D1           0.04005
           D2           0.00297   0.03770
           D3          -0.02069   0.01753   0.02442
           D4           0.01443  -0.01537  -0.01178   0.01645
 ITU=  0
     Eigenvalues ---    0.00800   0.04183   0.06880   0.13400   0.14678
     Eigenvalues ---    0.16308   0.23541   0.34404   0.40070   0.43602
     Eigenvalues ---    0.52450   0.77358
 Angle between quadratic step and forces=  26.83 degrees.
 Linear search not attempted -- first point.
 Iteration  1 RMS(Cart)=  0.00024749 RMS(Int)=  0.00000005
 Iteration  2 RMS(Cart)=  0.00000005 RMS(Int)=  0.00000000
 ITry= 1 IFail=0 DXMaxC= 5.64D-04 DCOld= 1.00D+10 DXMaxT= 3.00D-01 DXLimC= 3.00D+00 Rises=F
 ClnCor:  largest displacement from symmetrization is 9.80D-09 for atom     2.
 Variable       Old X    -DE/DX   Delta X   Delta X   Delta X     New X
                                 (Linear)    (Quad)   (Total)
    R1        2.36986   0.00001   0.00000  -0.00003  -0.00003   2.36983
    R2        2.57339   0.00001   0.00000   0.00001   0.00001   2.57339
    R3        2.05814  -0.00005   0.00000  -0.00015  -0.00015   2.05799
    R4        1.92832  -0.00011   0.00000  -0.00029  -0.00029   1.92804
    R5        1.81937  -0.00001   0.00000  -0.00003  -0.00003   1.81933
    A1        2.17498   0.00003   0.00000   0.00011   0.00011   2.17509
    A2        2.10571  -0.00001   0.00000  -0.00001  -0.00001   2.10570
    A3        2.00250  -0.00002   0.00000  -0.00010  -0.00010   2.00240
    A4        1.94973   0.00006   0.00000   0.00047   0.00047   1.95020
    A5        1.92638   0.00004   0.00000   0.00021   0.00021   1.92659
    D1        0.00000   0.00000   0.00000   0.00000  -0.00000   0.00000
    D2        3.14159   0.00000   0.00000   0.00000   0.00000   3.14159
    D3        3.14159  -0.00000   0.00000   0.00000   0.00000   3.14159
    D4        0.00000   0.00000   0.00000   0.00000   0.00000   0.00000
         Item               Value     Threshold  Converged?
 Maximum Force            0.000108     0.000450     YES
 RMS     Force            0.000039     0.000300     YES
 Maximum Displacement     0.000564     0.001800     YES
 RMS     Displacement     0.000247     0.001200     YES
 Predicted change in Energy=-4.097783D-08
 Optimization completed.
    -- Stationary point found.
                           ----------------------------
                           !   Optimized Parameters   !
                           ! (Angstroms and Degrees)  !
 --------------------------                            --------------------------
 ! Name  Definition              Value          Derivative Info.                !
 --------------------------------------------------------------------------------
 ! R1    R(1,2)                  1.2541         -DE/DX =    0.0                 !
 ! R2    R(1,3)                  1.3618         -DE/DX =    0.0                 !
 ! R3    R(1,4)                  1.0891         -DE/DX =   -0.0001              !
 ! R4    R(2,5)                  1.0204         -DE/DX =   -0.0001              !
 ! R5    R(3,6)                  0.9628         -DE/DX =    0.0                 !
 ! A1    A(2,1,3)              124.6171         -DE/DX =    0.0                 !
 ! A2    A(2,1,4)              120.6483         -DE/DX =    0.0                 !
 ! A3    A(3,1,4)              114.7346         -DE/DX =    0.0                 !
 ! A4    A(1,2,5)              111.7113         -DE/DX =    0.0001              !
 ! A5    A(1,3,6)              110.3734         -DE/DX =    0.0                 !
 ! D1    D(3,1,2,5)              0.0            -DE/DX =    0.0                 !
 ! D2    D(4,1,2,5)            180.0            -DE/DX =    0.0                 !
 ! D3    D(2,1,3,6)            180.0            -DE/DX =    0.0                 !
 ! D4    D(4,1,3,6)              0.0            -DE/DX =    0.0                 !
 --------------------------------------------------------------------------------
 GradGradGradGradGradGradGradGradGradGradGradGradGradGradGradGradGradGrad

 Leave Link  103 at Tue Jan 26 00:25:55 2021, MaxMem=  6291456000 cpu:               1.8 elap:               0.1
 (Enter /home/orgChemistry/bin/gaussian16-C.01/g16/l9999.exe)

 ----------------------------------------------------------------------

 Electric dipole moment (input orientation):
 (Debye = 10**-18 statcoulomb cm , SI units = C m)
                  (au)            (Debye)         (10**-30 SI)
   Tot        0.111392D+01      0.283130D+01      0.944420D+01
   x         -0.975205D+00     -0.247872D+01     -0.826814D+01
   y          0.537645D+00      0.136656D+01      0.455834D+01
   z          0.270073D-01      0.686457D-01      0.228977D+00

 Dipole polarizability, Alpha (input orientation).
 (esu units = cm**3 , SI units = C**2 m**2 J**-1)
 Alpha(0;0):
               (au)            (10**-24 esu)      (10**-40 SI)
   iso        0.280154D+02      0.415145D+01      0.461911D+01
   aniso      0.157530D+02      0.233436D+01      0.259732D+01
   xx         0.344296D+02      0.510193D+01      0.567667D+01
   yx        -0.527036D+01     -0.780987D+00     -0.868965D+00
   yy         0.296971D+02      0.440065D+01      0.489638D+01
   zx        -0.373993D+00     -0.554201D-01     -0.616631D-01
   zy         0.216757D+00      0.321201D-01      0.357384D-01
   zz         0.199196D+02      0.295178D+01      0.328430D+01

 ----------------------------------------------------------------------

 Dipole orientation:
     6         -0.58079648         -0.81317703          4.66236793
     7         -0.47489954         -0.62035664          2.30274090
     8          0.36894944          0.91614943          6.31455713
     1         -1.47635083         -2.44382983          5.54264731
     1          0.41565828          1.00119830          1.75877823
     1          0.07559198          0.38199518          8.02882416

 Electric dipole moment (dipole orientation):
 (Debye = 10**-18 statcoulomb cm , SI units = C m)
                  (au)            (Debye)         (10**-30 SI)
   Tot        0.111392D+01      0.283130D+01      0.944420D+01
   x          0.000000D+00      0.000000D+00      0.000000D+00
   y          0.000000D+00      0.000000D+00      0.000000D+00
   z          0.111392D+01      0.283130D+01      0.944420D+01

 Dipole polarizability, Alpha (dipole orientation).
 (esu units = cm**3 , SI units = C**2 m**2 J**-1)
 Alpha(0;0):
               (au)            (10**-24 esu)      (10**-40 SI)
   iso        0.280154D+02      0.415145D+01      0.461911D+01
   aniso      0.157530D+02      0.233436D+01      0.259732D+01
   xx         0.214001D+02      0.317117D+01      0.352841D+01
   yx         0.271492D+01      0.402309D+00      0.447629D+00
   yy         0.248525D+02      0.368276D+01      0.409763D+01
   zx         0.391076D+00      0.579515D-01      0.644798D-01
   zy         0.712084D+00      0.105520D+00      0.117407D+00
   zz         0.377935D+02      0.560042D+01      0.623131D+01

 ----------------------------------------------------------------------
 Unable to Open any file for archive entry.
 1\1\GINC-NODE2-132\Freq\RB3LYP\6-311++G(3df,3pd)\C1H3N1O1\RUTHM\26-Jan
 -2021\0\\#P Geom=AllCheck Guess=TCheck SCRF=Check GenChk RB3LYP/6-311+
 +G(3df,3pd) Freq\\title\\0,1\C,-2.4148646035,0.7315918969,-0.001556941
 3\N,-1.265497375,0.2308598647,-0.0320199846\O,-2.6762584675,2.06790411
 5,0.0179465503\H,-3.2979526777,0.0942751035,0.0113346061\H,-0.54086970
 78,0.9492661046,-0.0405876576\H,-3.6261291122,2.2233343612,0.040463987
 8\\Version=ES64L-G16RevC.01\State=1-A'\HF=-169.9414482\RMSD=4.781e-09\
 RMSF=4.551e-05\ZeroPoint=0.045573\Thermal=0.0490343\ETot=-169.8924139\
 HTot=-169.8914697\GTot=-169.9201635\Dipole=-0.9752054,0.537645,0.02700
 73\DipoleDeriv=1.0321237,-0.4509294,-0.0253864,-0.6953215,1.3787621,0.
 0285704,-0.0279006,0.0231883,0.0908645,-0.914821,0.4058403,0.0137399,0
 .3158273,-0.5049936,-0.0072073,0.012814,-0.0091896,-0.4808696,-0.44350
 37,0.2142564,0.0044126,0.6333379,-1.2281746,-0.0230514,0.0087238,-0.01
 38222,-0.3435534,-0.0904484,-0.0535985,0.0041695,-0.0363641,-0.0136279
 ,-0.0006141,0.0043468,-0.0002346,0.12382,0.2237078,-0.0947907,-0.00023
 02,-0.1678653,0.0786664,0.0018568,-0.000982,0.0002475,0.257557,0.19294
 16,-0.0207781,0.0032946,-0.0496142,0.2893676,0.0004457,0.002998,-0.000
 1893,0.3521815\Polar=34.4295507,-5.2703594,29.6970563,-0.3739931,0.216
 7571,19.9195832\Quadrupole=3.481129,-2.6059926,-0.8751364,0.8788014,-0
 .086929,-0.0371433\PG=CS [SG(C1H3N1O1)]\NImag=0\\0.98540420,-0.0576104
 2,0.59335067,-0.01874852,0.00571663,0.16145097,-0.58979921,0.18687579,
 0.01339191,0.85059208,0.13075384,-0.16694292,-0.00388717,-0.02958002,0
 .41970359,0.01281457,-0.00512312,-0.06932621,-0.01744132,0.00422390,0.
 07285868,-0.12118798,0.03453418,0.00206141,-0.01178365,0.06534107,0.00
 149223,0.62319620,-0.02427029,-0.27822148,-0.00187793,0.04586162,-0.03
 636102,-0.00164588,-0.11302484,0.39770041,0.00145648,-0.00317295,-0.04
 377942,0.00129184,-0.00207487,0.02540345,-0.01441896,0.00636167,0.0216
 3728,-0.22011981,-0.12540194,0.00245521,-0.03547116,-0.01113102,0.0006
 7544,0.00799346,0.00756457,0.00014980,0.24900916,-0.12461453,-0.142351
 45,0.00179484,0.01375537,0.01230659,-0.00018043,-0.01991264,-0.0337341
 4,-0.00002436,0.12942556,0.16241938,0.00246331,0.00181218,-0.05009043,
 0.00093145,0.00036763,0.00038203,-0.00013286,-0.00062948,0.01125861,-0
 .00357877,-0.00144737,0.02610996,-0.04375313,-0.03470616,0.00079091,-0
 .21598887,-0.15820503,0.00233139,0.00530279,-0.00169247,-0.00035541,-0
 .00355267,0.00355962,0.00040338,0.25642729,0.02381076,0.00188718,-0.00
 059109,-0.21618315,-0.22010909,0.00286921,0.00046469,0.00149678,0.0001
 0850,0.00022662,0.00116187,-0.00012781,0.19173627,0.21583576,0.0013928
 9,0.00069760,0.00834933,0.00173496,0.00159239,-0.03624500,-0.00033322,
 0.00015601,-0.01003611,0.00036909,-0.00020121,0.01309096,-0.00309910,-
 0.00227104,0.02618284,-0.01054407,-0.00369145,0.00004908,0.00245081,0.
 00282117,0.00012769,-0.50352082,0.08556141,0.01187625,0.00214102,-0.00
 221337,-0.00008651,0.00156459,-0.00005519,-0.00006462,0.50790847,0.051
 93064,-0.00772200,-0.00115527,-0.00072962,-0.00859714,-0.00014368,0.03
 259755,-0.05088055,-0.00119799,-0.00068378,0.00019776,0.00002484,-0.00
 069223,-0.00027249,0.00002626,-0.08242257,0.06727442,0.00062127,0.0000
 6966,-0.00660423,0.00009117,-0.00022187,0.00692706,0.01133139,-0.00236
 438,-0.00448380,-0.00007077,0.00005853,-0.00075113,-0.00007117,0.00001
 224,-0.00134201,-0.01190189,0.00244583,0.00625411\\0.00001588,0.000045
 93,0.00000012,-0.00006573,-0.00010642,0.00000035,0.00005242,0.00001731
 ,-0.00000098,-0.00003866,-0.00003664,0.00000047,0.00005361,0.00009913,
 -0.00000016,-0.00001752,-0.00001931,0.00000019\\\@
 The archive entry for this job was punched.


 NOTHING PUZZLES ME MORE THAN TIME AND SPACE; AND YET NOTHING TROUBLES ME LESS
                                                          -- CHARLES LAMB (1810)
 Job cpu time:       0 days  0 hours  5 minutes 43.4 seconds.
 Elapsed time:       0 days  0 hours  0 minutes 15.3 seconds.
 File lengths (MBytes):  RWF=     26 Int=      0 D2E=      0 Chk=      4 Scr=      1
 Normal termination of Gaussian 16 at Tue Jan 26 00:25:55 2021.
