 --invoking executable--
/home/orgChemistry/bin/cfour_v21/bin/xjoda


   *************************************************************************
         <<<     CCCCCC     CCCCCC   |||     CCCCCC     CCCCCC   >>>
       <<<      CCC        CCC       |||    CCC        CCC         >>>
      <<<      CCC        CCC        |||   CCC        CCC            >>>
    <<<        CCC        CCC        |||   CCC        CCC              >>>
      <<<      CCC        CCC        |||   CCC        CCC            >>>
       <<<      CCC        CCC       |||    CCC        CCC         >>>
         <<<     CCCCCC     CCCCCC   |||     CCCCCC     CCCCCC   >>>
   *************************************************************************

     ****************************************************************
     * CFOUR Coupled-Cluster techniques for Computational Chemistry *
     ****************************************************************
 

   Department of Chemistry                Institut fuer Physikalische Chemie
   University of Florida                  Universitaet Mainz
   Gainesville, FL 32611, USA             D-55099 Mainz, Germany

   Department of Chemistry                Fakultaet fuer Chemie und Biowiss.
   Johns Hopkins University               Karlsruher Institut fuer Technologie
   Baltimore, MD 21218, USA               D-76131 Karlsruhe, Germany

   Department of Chemistry                Department of Physical Chemistry
   Southern Methodist University          Eotvos Lorand University
   Dallas, TX 75275, USA                  H-1053 Budapest, Hungary

 
                       Version 2.1
 
                     node2-051                                         
                     Fri Jan 29 00:57:01 CET 2021                      
                     integer*8 version is running
 
********************************************************************************
*                          Input from ZMAT file                                *
********************************************************************************
title                                                                           
C                                                                               
N 1 R12                                                                         
O 1 R13 2 A213                                                                  
H 1 R14 3 A314 2 D2314                                                          
H 2 R25 1 A125 3 D3125                                                          
H 3 R36 1 A136 2 D2136                                                          
                                                                                
R12  =        1.268490190793958                                                 
R13  =        1.360037437347901                                                 
A213 =      129.398502304971032                                                 
R14  =        1.084590042057310                                                 
A314 =      110.027005024480417                                                 
D2314=      180.000000000000000                                                 
R25  =        1.022476415029006                                                 
A125 =      111.365446233622720                                                 
D3125=        0.000000000000000                                                 
R36  =        0.965050548465591                                                 
A136 =      108.221718542061183                                                 
D2136=        0.000000000000000                                                 
                                                                                
*CFOUR(CALC=CCSD(T),BASIS=cc-pVTZ,FROZEN_CORE=1                                 
       VIB=EXACT                                                                
       MEMORY_SIZE=5000,MEM_UNIT=MB,ABCDTYPE=AOBASIS,CC_PROG=ECC                
       MULTIPLICITY=1,CHARGE=0                                                  
       SCF_CONV=8,CC_CONV=10)                                                   
                                                                                
********************************************************************************
    -------------------------------------------------------------------
                    CFOUR Control Parameters 
    -------------------------------------------------------------------
        External           Internal           Value            Units
          Name               Name
    -------------------------------------------------------------------
       ABCDTYPE             IABCDT         AOBASIS     [  2]    ***   
       ANHARMONIC           IANHAR         OFF         [  0]    ***   
       ANH_ALGORIT          IANALG         STANDARD    [  0]    ***   
       ANH_DERIVAT          IANDER         SECOND      [  1]    ***   
       ANH_MODE             ANHMOD         VIBRATION   [  0]    ***   
       ANH_STEPSIZ          ICUBST             50000          x 10-6  
       ANH_SYMMETR          IANHSM         ABELIAN     [  0]    ***   
       AO_LADDERS           IAOLAD         SINGLEPASS  [  1]    ***   
       AV_SCF               IAVSCF         OFF         [  0]    ***   
       BASIS                IBASIS         PVTZ        [ 14]    ***   
       BOTHVECTORS          BOTHVC         OFF         [  0]    ***   
       BOX_POTENT           IPIAB          OFF         [  0]    ***   
       BREIT                IBREIT         OFF         [  0]    ***   
       BRUCK_CONV           IBRTOL          10D-  4             ***   
       BRUECKNER            IBRKNR         OFF         [  0]    ***   
       BUFFERSIZE           IBUFFS              4096            ***   
       CACHE_RECS           ICHREC             10               ***   
       CALCLEVEL            ICLLVL         CCSD(T)     [ 22]    ***   
       CCORBOPT             ICCORB         OFF         [  0]  x 0.01  
       CC_CONV              ICCCNV          10D- 10             ***   
       CC_EXPORDER          ICCEOR              5               ***   
       CC_EXTRAPOL          ICCEXT         DIIS        [  1]    ***   
       CC_GUESS             ICCGES         MP2         [  0]    ***   
       CC_MAXCYC            ICCCYC            100              cycles 
       CC_PROGRAM           ICCPRO         ECC         [  1]    ***   
       CHARGE               ICHRGE              0               ***   
       CHOLESKY             ICHOLE         OFF         [  0]    ***   
       CIS_CONV             ICISTL              5               ***   
       COMM_SIZE            IPSIZE            ***               ***   
       CONSTANT             ICONST         OLD         [  1]    ***   
       CONTINUUM            ICONTU         NONE        [  0]    ***   
       CONTRACTION          ICNTYP         GENERAL     [  1]    ***   
       COORDINATES          ICOORD         INTERNAL    [  0]    ***   
       CPHF_CONVER          ICPHFT          10D- 16             ***   
       CPHF_MAXCYC          ICPHFC             64              cycles 
       CUBIC                ICUBIC         OFF         [  0]    ***   
       CURVILINEAR          ICURVY         OFF         [  0]    ***   
       DBOC                 IDBOC          OFF         [  0]    ***   
       DCT                  IDCT           OFF         [  0]    ***   
       DERIV_LEV            IDRLVL         SECOND      [  2]    ***   
       DEVMEM_SIZE          IDVMEM         *********           MByte  
       DIAG_MRCC            IEOMST          10D-  0             ***   
       DIFF_TYPE            IDIFTY         RELAXED     [  0]    ***   
       DIRECT               IDIRCT         OFF         [  0]    ***   
       DROPMO               IDRPMO      NONE         
       ECP                  IECP           OFF         [  0]    ***   
       EIGENVECTOR          IVEC                1               ***   
       EL_ANHARM            IELANH         OFF         [  0]    ***   
       EOMFOLLOW            IEOMSR         ENERGY      [  0]    ***   
       EOMIP                IEOMIP         OFF         [  0]    ***   
       EOMLEVEL             HBARFM         SAME        [  0]    ***   
       EOM_MRCC             IMRCCE         NEW         [  1]    ***   
       EOM_NONIT            EOMNON         OFF         [  0]    ***   
       EOM_NSING            IEOMSI          10D-  0             ***   
       EOM_NSTATES          IMRCCD         DAVIDSON    [  0]    ***   
       EOM_NTRIP            IEOMTR          10D-  0             ***   
       EOM_ORDER            IEXORD         ENERGY      [  0]    ***   
       EOM_PROPSTA          IEOMST              0               ***   
       ESTATE_CONV          IEXTOL          10D-  5             ***   
       ESTATE_DIAG          IEXDIG         ITERATIVE   [  0]    ***   
       ESTATE_LOCK          IESLOC         ON          [  1]    ***   
       ESTATE_MAXC          IEXMXC             40               ***   
       ESTATE_PROP          IEXPRP         OFF         [  0]    ***   
       EVAL_HESS            IRECAL              0            # of cyc.
       EXCITATION           IEXCIT              0               ***   
       EXCITE               IEXCIT         NONE        [  0]    ***   
       EXTERN_POT           IEXPOT         OFF         [  0]    ***   
       FCGRADNEW            IFCGNW         OFF         [  0]    ***   
       FC_FIELD             IFINFC              0             x 10-6  
       FD_CALTYPE           IFDCAL         GRADONLY    [  0]    ***   
       FD_PROJECT           IFDPRJ         OFF         [  1]    ***   
       FD_STEPSIZE          IDISFD              0            10-4 bohr
       FD_USEGROUP          IFDGRP         FULL        [  0]    ***   
       FILE_RECSIZ          IFLREC              4096           words  
       FINITE_PERT          IFIPER              0             x 10-6  
       FIXGEOM              IFIXGM         OFF         [  0]    ***   
       FOCK                 IFOCK          AO          [  1]    ***   
       FREQ_ALGORI          IVIALG         STANDARD    [  0]    ***   
       FROZEN_CORE          IFROCO         ON          [  1]    ***   
       GAMMA_ABCD           IGABCD         DIRECT      [  1]    ***   
       GAMMA_ABCI           IGABCI         STORE       [  0]    ***   
       GENBAS_1             IGNBS1              0               ***   
       GENBAS_2             IGNBS2              0               ***   
       GENBAS_3             IGNBS3              0               ***   
       GENBAS_4             IGNBS4              0               ***   
       GEO_CONV             ICONTL              5              H/bohr 
       GEO_MAXCYC           IOPTCY             50               ***   
       GEO_MAXSTEP          IMXSTP            300            millibohr
       GEO_METHOD           INR            SINGLE_POINT[  5]    ***   
       GIAO                 IGIAO          OFF         [  1]    ***   
       GIMIC                IGIMIC         OFF         [  0]    ***   
       GRID                 IGRID          OFF         [  0]    ***   
       GRID_ALGO            IGALGO         SERIAL      [  0]    ***   
       GUESS                IGUESS         MOREAD      [  0]    ***   
       HBAR                 IHBAR          OFF         [  0]    ***   
       HESS_TYPE            IHESTP         SCF         [  0]    ***   
       HF2_FILE             IHF2Fl         USE         [  1]    ***   
       HFSTABILITY          ISTABL         OFF         [  0]    ***   
       INCORE               INCORE         OFF         [  0]    ***   
       INPUT_MRCC           IMRCC          ON          [  1]    ***   
       INTEGRALS            INTTYP         VMOL        [  1]    ***   
       JODA_PRINT           IJPRNT              0               ***   
       KEYWORD_OUT          IDMPKW         NO          [  0]    ***   
       LINDEP_TOL           ILINDP              8               ***   
       LINEQ_CONV           IZTACN          10D-  7           cycles  
       LINEQ_EXPOR          ILMAXD              5               ***   
       LINEQ_MAXCY          ILMAXC            100               ***   
       LINEQ_TYPE           ILTYPE         DIIS        [  1]    ***   
       LOCK_ORBOCC          ILOCOC         OFF         [  0]    ***   
       MEMORY_SIZE          IMEMSZ         625000000           words  
       MEM_UNIT             IMEMU          MB          [  2]    ***   
       MRCC                 IMRCCC         OFF         [  0]    ***   
       MULTIPLICTY          IMULTP              1               ***   
       NACOUPLING           IVCOUP         OFF         [  0]    ***   
       NEGEVAL              IDIE           ABORT       [  0]    ***   
       NEWNORM              INEWNO         OFF         [  0]    ***   
       NON-HF               INONHF         OFF         [  0]    ***   
       NTOP_TAMP            ITOPT2             15               ***   
       NUC_MODEL            INUCMO         POINT       [  0]    ***   
       OCCUPATION           IOCCU   ESTIMATED BY SCF 
       OPEN-SHELL           IOPEN          SPIN-ORBITAL[  0]    ***   
       OPTVIB               IOPTVB         OFF         [  0]    ***   
       ORBITALS             IORBTP         STANDARD    [  0]    ***   
       PARALLEL             IPARAL         ON          [  1]    ***   
       PARA_INT             IPINTS         ON          [  1]    ***   
       PARA_PRINT           IPPRIN              0               ***   
       PERT_ORB             IPTORB         CANONICAL   [  1]    ***   
       POINTS               IGRDFD              0               ***   
       PRINT                IPRNT               0               ***   
       PROPS                IPROPS         OFF         [  0]    ***   
       PROP_INTEGR          IINTYP         INTERNAL    [  0]    ***   
       PSI                  IPSI           OFF         [  0]    ***   
       QC_ALG               IQCALG         FLM         [  0]    ***   
       QC_LINALG            IQCLIN         TRIDIAG     [  2]    ***   
       QC_MAXCYC            IQCMAX          10D-100           cycles  
       QC_MAXSCFCY          IQCMSC          10D- 15           cycles  
       QC_RTRUST            IQCRTR          10D-  0           x 10-3  
       QC_SKIPSCF           IQCSKI         OFF         [  0]    ***   
       QC_START             IQCSTA          10D-  1             ***   
       QRHFGUESS            IQGUES         OFF         [  0]    ***   
       QUARTIC              IQUART         OFF         [  0]    ***   
       RAMAN_INT            IRAMIN         OFF         [  0]    ***   
       RAMAN_ORB            IRAMRE         UNRELAXED   [  0]    ***   
       RDO                  IRDOFM         ON          [  1]    ***   
       REDUCE_REPR          REDREP         Ir          [  0]    ***   
       REFERENCE            IREFNC         RHF         [  0]    ***   
       RELATIVIST           IRELAT         OFF         [  0]    ***   
       RELAX_DENS           IRDENS         ON          [  1]    ***   
       RESET_FLAGS          IRESET         OFF         [  0]    ***   
       RESTART_CC           ICCRES         OFF         [  0]    ***   
       ROT_EVEC             ROTVEC              0               ***   
       SAVE_INTS            ISVINT         OFF         [  0]    ***   
       SCALE_ON             ISTCRT              0               ***   
       SCF_CONV             ISCFCV          10D-  8             ***   
       SCF_DAMPING          IDAMP               0             x 10-3  
       SCF_EXPORDE          IRPPOR              6               ***   
       SCF_EXPSTAR          IRPPLS              8               ***   
       SCF_EXTRAPO          IRPP           ON          [  1]    ***   
       SCF_MAXCYC           ISCFCY            150              cycles 
       SCF_NOSTOP           ISCFST         OFF         [  0]    ***   
       SCF_PRINT            ISCFPR              0               ***   
       SCF_PROG             ISCFPR         SCF         [  0]    ***   
       SD_FIELD             IFINSD              0             x 10-6  
       SOPERT               IPERSO         OFF         [  0]    ***   
       SPHERICAL            IDFGHI         ON          [  1]    ***   
       SPINORBIT            ISOCAL         OFF         [  0]    ***   
       SPINROTATIO          ISRCON         OFF         [  0]    ***   
       SPIN_FLIP            ISPFLP         OFF         [  0]    ***   
       SPIN_ORBIT           ISPORB         OFF         [  0]    ***   
       SPIN_SCAL            ISCSMP         OFF         [  0]    ***   
       STEEPSCALE           ISTPSC              1000          x 10-3  
       SUBGROUP             ISUBGP         DEFAULT     [  0]    ***   
       SUBGRPAXIS           ISBXYZ         X           [  0]    ***   
       SYMMETRY             ISYM           ON          [  0]    ***   
       SYM_CHECK            ISYMCK         OVERRIDE    [  1]    ***   
       T3_EXTRAPOL          IT3EXT         OFF         [  0]    ***   
       T4_EXTRAPOL          IT4EXP         OFF         [  0]    ***   
       TAMP_SUM             IEVERY              5               ***   
       TESTSUITE            ITESTS         OFF         [  0]    ***   
       THERMOCH             ITHERM         ON          [  1]    ***   
       TOL_CHOLESK          ITOLCH          10D-  4             ***   
       TRANGRAD             IRESRM         OFF         [  0]    ***   
       TRANS_INV            ITRAIN         USE         [  0]    ***   
       TREAT_PERT           ITREAT         SIMULTANEOUS[  0]    ***   
       TRIP_ALGORI          ITRALG         NORMAL      [  0]    ***   
       UIJ_THRESHO          IUIJTH              1               ***   
       UNITS                IUNITS         ANGSTROM    [  0]    ***   
       UNOS                 IUNOS          OFF         [  0]    ***   
       UPDATE_HESS          IHUPDT         ON          [  1]    ***   
       VIBPHASE             ISETPH         STANDARD    [  0]    ***   
       VIBRATION            IVIB           ANALYTIC    [  1]    ***   
       VIB_ALGORIT          IGEALG         STANDARD    [  0]    ***   
       VNATORB              IVNORB         OFF         [  0]    ***   
       VTRAN                IVTRAN         PARTIAL     [  2]    ***   
       XFIELD               IXEFLD              0             x 10-6  
       XFORM_TOL            IXFTOL          10D- 11             ***   
       YFIELD               IYEFLD              0             x 10-6  
       ZFIELD               IZEFLD              0             x 10-6  
       ZSCALE_EXP           IZEXPS         OFF         [  0]    ***   
    -------------------------------------------------------------------
   6 entries found in Z-matrix 
   Job Title : title                                                                           
   There are 12 unique internal coordinates.
   Of these,  0 will be optimized.
   User supplied Z-matrix: 
--------------------------------------------------------------------------------
       SYMBOL    BOND      LENGTH    ANGLE     ANGLE     DIHED     ANGLE
                  TO      (ANGST)    WRT      (DEG)      WRT      (DEG)
--------------------------------------------------------------------------------
        C    
        N          1         R12  
        O          1         R13        2        A213 
        H          1         R14        3        A314       2        D2314
        H          2         R25        1        A125       3        D3125
        H          3         R36        1        A136       2        D2136
                  *Initial values for internal coordinates* 
                      Name             Value
                        R12             1.2684901908
                        R13             1.3600374373
                        A213          129.3985023050
                        R14             1.0845900421
                        A314          110.0270050245
                        D2314         180.0000000000
                        R25             1.0224764150
                        A125          111.3654462336
                        D3125           0.0000000000
                        R36             0.9650505485
                        A136          108.2217185421
                        D2136           0.0000000000
--------------------------------------------------------------------------------
   Rotational constants (in cm-1): 
          0.3223590155             0.3767924583             2.2313937835
   Rotational constants (in MHz): 
       9664.0815143503         11295.9553044056         66895.5120852411
********************************************************************************
   The full molecular point group is C s .
   The largest Abelian subgroup of the full molecular point group is C s .
   The computational point group is C s .
********************************************************************************
--------------------------------------------------------------------------------
   Analysis of internal coordinates specified by Z-matrix 
--------------------------------------------------------------------------------
   *The nuclear repulsion energy is   70.670914856965396 a.u.
   *There are   9 degrees of freedom within the tot. symm. molecular subspace.
   *Z-matrix requests optimization of   0 coordinates.
   *The optimization is constrained.
   *The following   9 parameters can have non-zero 
    derivatives within the totally symmetric subspace:
             A314 [ 5]  A136 [11]  A125 [ 8]  A213 [ 3]  R25  [ 7]  R14  [ 4]
             R36  [10]  R13  [ 2]  R12  [ 1]
   *The following   0 parameters are to be optimized:

   *The following coordinates must be varied in an  unconstrained optimization.
             A314 [ 5]  A136 [11]  A125 [ 8]  A213 [ 3]  R25  [ 7]  R14  [ 4]
             R36  [10]  R13  [ 2]  R12  [ 1]
--------------------------------------------------------------------------------


 ----------------------------------------------------------------
         Coordinates used in calculation (QCOMP) 
 ----------------------------------------------------------------
 Z-matrix   Atomic            Coordinates (in bohr)
  Symbol    Number           X              Y              Z
 ----------------------------------------------------------------
     C         6        -0.17992816     0.78950135    -0.00000000
     N         7        -2.31666819    -0.29697384     0.00000000
     O         8         2.17432698    -0.24146454     0.00000000
     H         1        -0.05043531     2.83498513    -0.00000000
     H         1        -2.12856571    -2.21999682     0.00000000
     H         1         2.00182692    -2.05696953     0.00000000
 ----------------------------------------------------------------
 
   Interatomic distance matrix (Angstroms) 
 
                 C             N             O             H             H    
                [ 1]        [ 2]        [ 3]        [ 4]        [ 5]
  C    [ 1]     0.00000
  N    [ 2]     1.26849     0.00000
  O    [ 3]     1.36004     2.37671     0.00000
  H    [ 4]     1.08459     2.04573     2.00907     0.00000
  H    [ 5]     1.89725     1.02248     2.50617     2.89221     0.00000
  H    [ 6]     1.89785     2.46775     0.96505     2.80728     2.18741
 
                 H    
                [ 6]
  H    [ 6]     0.00000
 rotcon2
   Rotational constants (in cm-1): 
          2.2313937835             0.3767924583             0.3223590155
   Rotational constants (in MHz): 
      66895.5120852411         11295.9553044056          9664.0815143503
  There are   3 frozen-core orbitals.
  There are  132 basis functions.
 @CHECKOUT-I, Total execution time (CPU/WALL):        0.11/       0.70 seconds.
--executable xjoda finished with status     0 in        2.83 seconds (walltime).
 --invoking executable--
/home/orgChemistry/bin/cfour_v21/bin/xvmol
 SERIAL VERSION OF MOLECULE STARTED
********************************************************************************
                    INPUT FROM MOL FILE
********************************************************************************
INTGRL        1    0    1    0    0    0    0    0    0                         
         *** CFOUR Program System (Release V0.1) ***                            
title                                                                           
    6    1 Z          0.10E-08              0    0                              
   9999.00      3.00                                                            
          6.00000000    1    4    1    1    1    1                              
C #1  -0.179928158631214   0.789501345563163  -0.000000000000001                
   10    4                                                                      
   8236.00000000000       5.310000000000000E-004 -1.130000000000000E-004        
  0.000000000000000E+000  0.000000000000000E+000                                
   1235.00000000000       4.108000000000000E-003 -8.780000000000000E-004        
  0.000000000000000E+000  0.000000000000000E+000                                
   280.800000000000       2.108700000000000E-002 -4.540000000000000E-003        
  0.000000000000000E+000  0.000000000000000E+000                                
   79.2700000000000       8.185300000000000E-002 -1.813300000000000E-002        
  0.000000000000000E+000  0.000000000000000E+000                                
   25.5900000000000       0.234817000000000      -5.576000000000000E-002        
  0.000000000000000E+000  0.000000000000000E+000                                
   8.99700000000000       0.434401000000000      -0.126895000000000             
  0.000000000000000E+000  0.000000000000000E+000                                
   3.31900000000000       0.346129000000000      -0.170352000000000             
  0.000000000000000E+000  0.000000000000000E+000                                
  0.905900000000000       3.937800000000000E-002  0.140382000000000             
   1.00000000000000       0.000000000000000E+000                                
  0.364300000000000      -8.983000000000000E-003  0.598684000000000             
  0.000000000000000E+000  0.000000000000000E+000                                
  0.128500000000000       2.385000000000000E-003  0.395389000000000             
  0.000000000000000E+000   1.00000000000000                                     
    5    3                                                                      
   18.7100000000000       1.403100000000000E-002  0.000000000000000E+000        
  0.000000000000000E+000                                                        
   4.13300000000000       8.686600000000000E-002  0.000000000000000E+000        
  0.000000000000000E+000                                                        
   1.20000000000000       0.290216000000000       0.000000000000000E+000        
  0.000000000000000E+000                                                        
  0.382700000000000       0.501008000000000        1.00000000000000             
  0.000000000000000E+000                                                        
  0.120900000000000       0.343406000000000       0.000000000000000E+000        
   1.00000000000000                                                             
    2    2                                                                      
   1.09700000000000        1.00000000000000       0.000000000000000E+000        
  0.318000000000000       0.000000000000000E+000   1.00000000000000             
    1    1                                                                      
  0.761000000000000        1.00000000000000                                     
          7.00000000    1    4    1    1    1    1                              
N #2  -2.316668185249704  -0.296973842386209   0.000000000000000                
   10    4                                                                      
   11420.0000000000       5.230000000000000E-004 -1.150000000000000E-004        
  0.000000000000000E+000  0.000000000000000E+000                                
   1712.00000000000       4.045000000000000E-003 -8.950000000000000E-004        
  0.000000000000000E+000  0.000000000000000E+000                                
   389.300000000000       2.077500000000000E-002 -4.624000000000000E-003        
  0.000000000000000E+000  0.000000000000000E+000                                
   110.000000000000       8.072699999999999E-002 -1.852800000000000E-002        
  0.000000000000000E+000  0.000000000000000E+000                                
   35.5700000000000       0.233074000000000      -5.733900000000000E-002        
  0.000000000000000E+000  0.000000000000000E+000                                
   12.5400000000000       0.433501000000000      -0.132076000000000             
  0.000000000000000E+000  0.000000000000000E+000                                
   4.64400000000000       0.347472000000000      -0.172510000000000             
  0.000000000000000E+000  0.000000000000000E+000                                
   1.29300000000000       4.126200000000000E-002  0.151814000000000             
   1.00000000000000       0.000000000000000E+000                                
  0.511800000000000      -8.508000000000000E-003  0.599944000000000             
  0.000000000000000E+000  0.000000000000000E+000                                
  0.178700000000000       2.384000000000000E-003  0.387462000000000             
  0.000000000000000E+000   1.00000000000000                                     
    5    3                                                                      
   26.6300000000000       1.467000000000000E-002  0.000000000000000E+000        
  0.000000000000000E+000                                                        
   5.94800000000000       9.176400000000000E-002  0.000000000000000E+000        
  0.000000000000000E+000                                                        
   1.74200000000000       0.298683000000000       0.000000000000000E+000        
  0.000000000000000E+000                                                        
  0.555000000000000       0.498487000000000        1.00000000000000             
  0.000000000000000E+000                                                        
  0.172500000000000       0.337023000000000       0.000000000000000E+000        
   1.00000000000000                                                             
    2    2                                                                      
   1.65400000000000        1.00000000000000       0.000000000000000E+000        
  0.469000000000000       0.000000000000000E+000   1.00000000000000             
    1    1                                                                      
   1.09300000000000        1.00000000000000                                     
          8.00000000    1    4    1    1    1    1                              
O #3   2.174326980890422  -0.241464538503948   0.000000000000000                
   10    4                                                                      
   15330.0000000000       5.080000000000000E-004 -1.150000000000000E-004        
  0.000000000000000E+000  0.000000000000000E+000                                
   2299.00000000000       3.929000000000000E-003 -8.950000000000000E-004        
  0.000000000000000E+000  0.000000000000000E+000                                
   522.400000000000       2.024300000000000E-002 -4.636000000000000E-003        
  0.000000000000000E+000  0.000000000000000E+000                                
   147.300000000000       7.918100000000000E-002 -1.872400000000000E-002        
  0.000000000000000E+000  0.000000000000000E+000                                
   47.5500000000000       0.230687000000000      -5.846300000000000E-002        
  0.000000000000000E+000  0.000000000000000E+000                                
   16.7600000000000       0.433118000000000      -0.136463000000000             
  0.000000000000000E+000  0.000000000000000E+000                                
   6.20700000000000       0.350260000000000      -0.175740000000000             
  0.000000000000000E+000  0.000000000000000E+000                                
   1.75200000000000       4.272800000000000E-002  0.160934000000000             
   1.00000000000000       0.000000000000000E+000                                
  0.688200000000000      -8.154000000000000E-003  0.603418000000000             
  0.000000000000000E+000  0.000000000000000E+000                                
  0.238400000000000       2.381000000000000E-003  0.378765000000000             
  0.000000000000000E+000   1.00000000000000                                     
    5    3                                                                      
   34.4600000000000       1.592800000000000E-002  0.000000000000000E+000        
  0.000000000000000E+000                                                        
   7.74900000000000       9.974000000000000E-002  0.000000000000000E+000        
  0.000000000000000E+000                                                        
   2.28000000000000       0.310492000000000       0.000000000000000E+000        
  0.000000000000000E+000                                                        
  0.715600000000000       0.491026000000000        1.00000000000000             
  0.000000000000000E+000                                                        
  0.214000000000000       0.336337000000000       0.000000000000000E+000        
   1.00000000000000                                                             
    2    2                                                                      
   2.31400000000000        1.00000000000000       0.000000000000000E+000        
  0.645000000000000       0.000000000000000E+000   1.00000000000000             
    1    1                                                                      
   1.42800000000000        1.00000000000000                                     
          1.00000000    1    3    1    1    1                                   
H #4  -0.050435312303176   2.834985127732994  -0.000000000000002                
    5    3                                                                      
   33.8700000000000       6.068000000000000E-003  0.000000000000000E+000        
  0.000000000000000E+000                                                        
   5.09500000000000       4.530800000000000E-002  0.000000000000000E+000        
  0.000000000000000E+000                                                        
   1.15900000000000       0.202822000000000       0.000000000000000E+000        
  0.000000000000000E+000                                                        
  0.325800000000000       0.503903000000000        1.00000000000000             
  0.000000000000000E+000                                                        
  0.102700000000000       0.383421000000000       0.000000000000000E+000        
   1.00000000000000                                                             
    2    2                                                                      
   1.40700000000000        1.00000000000000       0.000000000000000E+000        
  0.388000000000000       0.000000000000000E+000   1.00000000000000             
    1    1                                                                      
   1.05700000000000        1.00000000000000                                     
          1.00000000    1    3    1    1    1                                   
H #5  -2.128565711236346  -2.219996823002845   0.000000000000002                
    5    3                                                                      
   33.8700000000000       6.068000000000000E-003  0.000000000000000E+000        
  0.000000000000000E+000                                                        
   5.09500000000000       4.530800000000000E-002  0.000000000000000E+000        
  0.000000000000000E+000                                                        
   1.15900000000000       0.202822000000000       0.000000000000000E+000        
  0.000000000000000E+000                                                        
  0.325800000000000       0.503903000000000        1.00000000000000             
  0.000000000000000E+000                                                        
  0.102700000000000       0.383421000000000       0.000000000000000E+000        
   1.00000000000000                                                             
    2    2                                                                      
   1.40700000000000        1.00000000000000       0.000000000000000E+000        
  0.388000000000000       0.000000000000000E+000   1.00000000000000             
    1    1                                                                      
   1.05700000000000        1.00000000000000                                     
          1.00000000    1    3    1    1    1                                   
H #6   2.001826919759967  -2.056969526820557   0.000000000000002                
    5    3                                                                      
   33.8700000000000       6.068000000000000E-003  0.000000000000000E+000        
  0.000000000000000E+000                                                        
   5.09500000000000       4.530800000000000E-002  0.000000000000000E+000        
  0.000000000000000E+000                                                        
   1.15900000000000       0.202822000000000       0.000000000000000E+000        
  0.000000000000000E+000                                                        
  0.325800000000000       0.503903000000000        1.00000000000000             
  0.000000000000000E+000                                                        
  0.102700000000000       0.383421000000000       0.000000000000000E+000        
   1.00000000000000                                                             
    2    2                                                                      
   1.40700000000000        1.00000000000000       0.000000000000000E+000        
  0.388000000000000       0.000000000000000E+000   1.00000000000000             
    1    1                                                                      
   1.05700000000000        1.00000000000000                                     
FINISH                                                                          
 
********************************************************************************
 ONE- AND TWO-ELECTRON INTEGRALS OVER SYMMETRY-ADAPTED AOS ARE CALCULATED.

  SPHERICAL HARMONICS ARE USED.
  
  INTEGRALS LESS THAN  0.10E-13 ARE NEGLECTED.

  NUCLEAR REPULSION ENERGY :   70.6709148570 A.U.
  @MOLECU-I, ONE ELECTRON INTEGRALS (CPU/WALL):        0.04/       0.08 SECONDS.
  @TWOEL-I,    8732303 INTEGRALS OF SYMMETRY TYPE  I I I I
  @TWOEL-I,    7091921 INTEGRALS OF SYMMETRY TYPE  I J I J
  @TWOEL-I,    3667856 INTEGRALS OF SYMMETRY TYPE  I I J J
  @TWOEL-I, TOTAL NUMBER OF 2-E INTEGRALS   19492080.
  @MOLECU-I, TWO ELECTRON INTEGRALS (CPU/WALL):       10.95/      11.54 SECONDS.
 @CHECKOUT-I, Total execution time (CPU/WALL):       11.00/      11.66 seconds.

Running with 24 threads/proc

--executable xvmol finished with status     0 in       13.15 seconds (walltime).
 --invoking executable--
/home/orgChemistry/bin/cfour_v21/bin/xvmol2ja
 @GETMEM-I,  Allocated    4768 MB of main memory.
 @CHECKOUT-I, Total execution time (CPU/WALL):        0.01/       0.02 seconds.
--executable xvmol2ja finished with status     0 in        0.22 seconds (walltime).
 --invoking executable--
/home/orgChemistry/bin/cfour_v21/bin/xvscf
  There are  132 functions in the AO basis.

  There are 2 irreducible representations.

       Irrep        # of functions
         1                 90
         2                 42


  Parameters for SCF calculation: 
        SCF reference function:  RHF  
  Maximum number of iterations:  150
     Full symmetry point group: C s 
     Computational point group: C s 
        Initial density matrix: MOREAD                 
     SCF convergence tolerance: 10**(- 8)
  DIIS convergence acceleration:  ON
          Latest start for DIIS:   8
                     DIIS order:   6

  Memory information:     834884 words required.
  Fock matrices are constructed from AO integral file.
 @GETMEM-I,  Allocated       6 MB of main memory.
  Initialization and symmetry analysis required      0.002 seconds.

  @INITGES-I, Occupancies from core Hamiltonian:

          Alpha population by irrep:  10    2
           Beta population by irrep:  10    2


 total no. of electrons in initial guess :  0.000000000000000E+000
  --------------------------------------------------------------------
  Iteration         Total Energy            Largest Density Difference
  --------------------------------------------------------------------
       0            70.670914856965410              0.0000000000D+00
   current occupation vector 
    10  2
    10  2
       1          -138.709625817390872              0.1506717758D+02
   current occupation vector 
    10  2
    10  2
       2          -143.158817119498565              0.6797112114D+02
   current occupation vector 
    11  1
    11  1
       3          -143.558868899553204              0.6771795224D+02
   current occupation vector 
    10  2
    10  2
       4          -126.562612494938165              0.7710887907D+01
   current occupation vector 
    10  2
    10  2
       5          -125.950306081849234              0.8661197804D+01
   current occupation vector 
    10  2
    10  2
       6          -120.572737579675348              0.8661362040D+01
   current occupation vector 
    10  2
    10  2
       7          -122.444165029691433              0.8936407635D+01
   current occupation vector 
    10  2
    10  2
       8          -122.214237564004279              0.8936419968D+01
   current occupation vector 
    10  2
    10  2
       9          -157.336868759932713              0.8647834830D+01
   current occupation vector 
    10  2
    10  2
      10          -168.075430688830977              0.2216956060D+01
   current occupation vector 
    10  2
    10  2
      11          -168.808980500714540              0.9908426702D+00
   current occupation vector 
    10  2
    10  2
      12          -168.958211385432890              0.4052920495D+00
   current occupation vector 
    10  2
    10  2
      13          -168.971917236540946              0.1281914782D+00
   current occupation vector 
    10  2
    10  2
      14          -168.974259735852627              0.3746641515D-01
   current occupation vector 
    10  2
    10  2
      15          -168.974860527377700              0.2449060982D-01
   current occupation vector 
    10  2
    10  2
      16          -168.974975204585064              0.1290908764D-01
   current occupation vector 
    10  2
    10  2
      17          -168.974987580389040              0.4780656305D-02
   current occupation vector 
    10  2
    10  2
      18          -168.974988421309035              0.1287200246D-02
   current occupation vector 
    10  2
    10  2
      19          -168.974988451105901              0.1793073946D-03
   current occupation vector 
    10  2
    10  2
      20          -168.974988456357039              0.1052866868D-03
   current occupation vector 
    10  2
    10  2
      21          -168.974988456606297              0.1907675787D-04
   current occupation vector 
    10  2
    10  2
      22          -168.974988456627216              0.6521191340D-05
   current occupation vector 
    10  2
    10  2
      23          -168.974988456628466              0.1497822364D-05
   current occupation vector 
    10  2
    10  2
      24          -168.974988456628409              0.4726900250D-06
   current occupation vector 
    10  2
    10  2
      25          -168.974988456627898              0.1129040044D-06
   current occupation vector 
    10  2
    10  2
      26          -168.974988456629319              0.3573718410D-07
   current occupation vector 
    10  2
    10  2
      27          -168.974988456629262              0.1162167540D-07
   current occupation vector 
    10  2
    10  2

  SCF has converged.

 Density matrix saved to file den.dat
 total electron number:   24.0000000000001     
     E(SCF)=      -168.974988456629603              0.2928366105D-08

  Eigenvector printing suppressed.

 @PUTMOS-I, Writing converged MOs to NEWMOS. 
 @PUTMOS-I, Symmetry   1 Full Blocks 22 Partial Blocksize   2
 @PUTMOS-I, Symmetry   2 Full Blocks 10 Partial Blocksize   2
 @PUTFOCK-I, Writing converged Fock matrix to NEWFOCK. 
 @PUTFOCK-I, Symmetry   1 Full Blocks 22 Partial Blocksize   2
 @PUTFOCK-I, Symmetry   2 Full Blocks 10 Partial Blocksize   2


 
  ORBITAL EIGENVALUES (ALPHA)  (1H = 27.2113834 eV)

       MO #        E(hartree)               E(eV)           FULLSYM    COMPSYM
       ----   --------------------   --------------------   -------   ---------
    1     1         -20.6134069242        -560.9193189941     A'        A'  (1)
    2     2         -15.5500197087        -423.1375481708     A'        A'  (1)
    3     3         -11.3473934423        -308.7782735504     A'        A'  (1)
    4     4          -1.4333341923         -39.0030062479     A'        A'  (1)
    5     5          -1.1976724967         -32.5903254966     A'        A'  (1)
    6     6          -0.8773293838         -23.8733462305     A'        A'  (1)
    7     7          -0.7271454411         -19.7866333850     A'        A'  (1)
    8     8          -0.6734021481         -18.3242040356     A'        A'  (1)
    9    91          -0.6064974454         -16.5036345185     A''       A'' (2)
   10     9          -0.5829882441         -15.8639166268     A'        A'  (1)
   11    10          -0.4513980012         -12.2831640765     A'        A'  (1)
   12    92          -0.4220183638         -11.4837035004     A''       A'' (2)
  +++++++++++++++++++++++++++++++++++++++++++++++++++++++++++++++++++++++++++++
   13    11           0.1284225283           3.4945546558     A'        A'  (1)
   14    93           0.1767512015           4.8096447095     A''       A'' (2)
   15    12           0.1782586617           4.8506647890     A'        A'  (1)
   16    13           0.2004450993           5.4543884487     A'        A'  (1)
   17    14           0.3402208855           9.2578809561     A'        A'  (1)
   18    15           0.3427844132           9.3276380898     A'        A'  (1)
   19    94           0.4427158743          12.0469113930     A''       A'' (2)
   20    16           0.4874212701          13.2634070593     A'        A'  (1)
   21    17           0.5262390725          14.3196931619     A'        A'  (1)
   22    18           0.5659519091          15.4003343853     A'        A'  (1)
   23    19           0.5871435800          15.9769890663     A'        A'  (1)
   24    20           0.6262851991          17.0420866692     A'        A'  (1)
   25    21           0.6670864699          18.1523456938     A'        A'  (1)
   26    22           0.6931084515          18.8604398126     A'        A'  (1)
   27    95           0.7050193735          19.1845524774     A''       A'' (2)
   28    96           0.7271215579          19.7859834900     A''       A'' (2)
   29    23           0.7500263626          20.4092549118     A'        A'  (1)
   30    24           0.7704923453          20.9661626136     A'        A'  (1)
   31    25           0.8036043773          21.8671868130     A'        A'  (1)
   32    97           0.8536089723          23.2278810201     A''       A'' (2)
   33    98           0.8787875091          23.9130238381     A''       A'' (2)
   34    99           0.8956665635          24.3723262583     A''       A'' (2)
   35    26           0.9962812143          27.1101900961     A'        A'  (1)
   36    27           1.0636668734          28.9438471022     A'        A'  (1)
   37   100           1.1419859810          31.0750183676     A''       A'' (2)
   38    28           1.1797689541          32.1031453340     A'        A'  (1)
   39    29           1.2232067798          33.2851486613     A'        A'  (1)
   40    30           1.2601502141          34.2904306161     A'        A'  (1)
   41   101           1.2777161332          34.7684235766     A''       A'' (2)
   42    31           1.3896140134          37.8133196975     A'        A'  (1)
   43    32           1.4501916000          39.4617196309     A'        A'  (1)
   44    33           1.5391120293          41.8813675238     A'        A'  (1)
   45    34           1.5456101112          42.0581893233     A'        A'  (1)
   46   102           1.6551400022          45.0386491816     A''       A'' (2)
   47    35           1.6684080888          45.3996921720     A'        A'  (1)
   48   103           1.7395631200          47.3359190063     A''       A'' (2)
   49    36           1.7918757975          48.7594193308     A'        A'  (1)
   50    37           1.8674616559          50.8162151022     A'        A'  (1)
   51    38           1.9780682431          53.8259733547     A'        A'  (1)
   52   104           2.0828138185          56.6762453648     A''       A'' (2)
   53   105           2.1360734387          58.1255133112     A''       A'' (2)
   54    39           2.1449975252          58.3683500492     A'        A'  (1)
   55    40           2.2474435039          61.1560468532     A'        A'  (1)
   56    41           2.3321493522          63.4610101691     A'        A'  (1)
   57   106           2.4066025993          65.4869860220     A''       A'' (2)
   58    42           2.4768414545          67.3982824381     A'        A'  (1)
   59    43           2.6009019493          70.7741401293     A'        A'  (1)
   60    44           2.6983508404          73.4258592653     A'        A'  (1)
   61    45           2.7988163040          76.1596635144     A'        A'  (1)
   62    46           2.8967797656          78.8253848266     A'        A'  (1)
   63   107           2.9477698437          80.2128953913     A''       A'' (2)
   64    47           2.9815716009          81.1326879673     A'        A'  (1)
   65   108           3.1206910353          84.9183202343     A''       A'' (2)
   66   109           3.2011051713          87.1065001209     A''       A'' (2)
   67   110           3.2382863652          88.1182518420     A''       A'' (2)
   68    48           3.2636277034          88.8078247132     A'        A'  (1)
   69    49           3.3066238374          89.9778089991     A'        A'  (1)
   70    50           3.3345666430          90.7381713951     A'        A'  (1)
   71   111           3.3957066354          92.4018751688     A''       A'' (2)
   72    51           3.4213481954          93.0996174910     A'        A'  (1)
   73    52           3.4338059497          93.4386102190     A'        A'  (1)
   74   112           3.4648541409          94.2834744531     A''       A'' (2)
   75   113           3.5752511355          97.2875293988     A''       A'' (2)
   76    53           3.5936943715          97.7893953643     A'        A'  (1)
   77    54           3.6639132199          99.7001473700     A'        A'  (1)
   78   114           3.7120114634         101.0089671152     A''       A'' (2)
   79    55           3.7455073138         101.9204355436     A'        A'  (1)
   80    56           3.7988556548         103.3721177048     A'        A'  (1)
   81   115           3.8032218634         103.4909282790     A''       A'' (2)
   82   116           3.8578446293         104.9772893052     A''       A'' (2)
   83    57           3.8692187032         105.2867935918     A'        A'  (1)
   84    58           3.9657171708         107.9126503895     A'        A'  (1)
   85   117           3.9839799244         108.4096051819     A''       A'' (2)
   86    59           4.1034321312         111.6600649787     A'        A'  (1)
   87   118           4.1439117563         112.7615715774     A''       A'' (2)
   88    60           4.1548534955         113.0593114380     A'        A'  (1)
   89   119           4.1750080875         113.6077457675     A''       A'' (2)
   90    61           4.1890502568         113.9898526189     A'        A'  (1)
   91   120           4.2059554936         114.4498674990     A''       A'' (2)
   92    62           4.2250491044         114.9694310645     A'        A'  (1)
   93    63           4.4087610486         119.9684872127     A'        A'  (1)
   94    64           4.4651133334         121.5019108389     A'        A'  (1)
   95   121           4.5606351068         124.1011904393     A''       A'' (2)
   96    65           4.5620403585         124.1394292826     A'        A'  (1)
   97    66           4.6297678403         125.9823877558     A'        A'  (1)
   98    67           4.7146328028         128.2916807878     A'        A'  (1)
   99   122           4.8915557188         133.1059980862     A''       A'' (2)
  100    68           4.9808703932         135.5363739359     A'        A'  (1)
  101    69           5.0923855578         138.5708558337     A'        A'  (1)
  102   123           5.1298808801         139.5911554260     A''       A'' (2)
  103    70           5.1824091938         141.0205235091     A'        A'  (1)
  104   124           5.2365613736         142.4940792347     A''       A'' (2)
  105    71           5.2629142457         143.2111773412     A'        A'  (1)
  106   125           5.2964986071         144.1250542763     A''       A'' (2)
  107    72           5.3564746880         145.7570864067     A'        A'  (1)
  108    73           5.4298996644         147.7550815926     A'        A'  (1)
  109    74           5.6019865736         152.4378044564     A'        A'  (1)
  110   126           5.6587080109         153.9812732321     A''       A'' (2)
  111    75           5.6726116050         154.3596092642     A'        A'  (1)
  112    76           5.8184094708         158.3269708894     A'        A'  (1)
  113   127           5.9100875477         160.8216581875     A''       A'' (2)
  114    77           5.9305269727         161.3778432187     A'        A'  (1)
  115   128           6.0656824980         165.0556120362     A''       A'' (2)
  116    78           6.1559606807         167.5122062784     A'        A'  (1)
  117    79           6.3446321547         172.6462180936     A'        A'  (1)
  118   129           6.3752540405         173.4794819675     A''       A'' (2)
  119    80           6.5513669084         178.2717567373     A'        A'  (1)
  120    81           6.8548020489         186.5286466831     A'        A'  (1)
  121   130           6.9139564052         188.1383185531     A''       A'' (2)
  122    82           7.0367491224         191.4796782592     A'        A'  (1)
  123   131           7.0448475547         191.7000478058     A''       A'' (2)
  124    83           7.2124309174         196.2602229399     A'        A'  (1)
  125   132           7.2443629821         197.1291385960     A''       A'' (2)
  126    84           7.2501444986         197.2864616558     A'        A'  (1)
  127    85           7.4814294836         203.5800460591     A'        A'  (1)
  128    86           7.6100905927         207.0810928263     A'        A'  (1)
  129    87           7.9249167470         215.6479480151     A'        A'  (1)
  130    88          10.6745606664         290.4695629197     A'        A'  (1)
  131    89          12.6833704873         345.1320571353     A'        A'  (1)
  132    90          14.2156203856         386.8266965826     A'        A'  (1)


  VSCF finished.

 @CHECKOUT-I, Total execution time (CPU/WALL):        6.75/      10.90 seconds.
--executable xvscf finished with status     0 in       11.19 seconds (walltime).
 --invoking executable--
/home/orgChemistry/bin/cfour_v21/bin/xvtran
 @GETMEM-I,  Allocated    4768 MB of main memory.
  Partial RHF integral transformation
  Frozen-core orbitals requested within analytic derivative calculation
  Transformation of IIII integrals :
  1 pass through the AO integral file was required.
     8732303 AO integrals were read.
     3207686 MO integrals were written to HF2.
  Transformation of IIJJ integrals :
  1 pass through the AO integral file was required.
     3667856 AO integrals were read.
     1040985 MO integrals were written to HF2.
  Transformation of IJIJ integrals :
  1 pass through the AO integral file was required.
     7091921 AO integrals were read.
     2024490 MO integrals were written to HF2.
  Summary of active molecular orbitals: 
------------------------------------------------------------------------
 
  Index      Eigenvalue    Symmetry    Index      Eigenvalue    Symmetry
------------------------------------------------------------------------
     1       -20.6134069        1        67         4.5620404        1
     2       -15.5500197        1        68         4.6297678        1
     3       -11.3473934        1        69         4.7146328        1
     4        -1.4333342        1        70         4.9808704        1
     5        -1.1976725        1        71         5.0923856        1
     6        -0.8773294        1        72         5.1824092        1
     7        -0.7271454        1        73         5.2629142        1
     8        -0.6734021        1        74         5.3564747        1
     9        -0.5829882        1        75         5.4298997        1
    10        -0.4513980        1        76         5.6019866        1
    11        -0.6064974        2        77         5.6726116        1
    12        -0.4220184        2        78         5.8184095        1
    13         0.1284225        1        79         5.9305270        1
    14         0.1782587        1        80         6.1559607        1
    15         0.2004451        1        81         6.3446322        1
    16         0.3402209        1        82         6.5513669        1
    17         0.3427844        1        83         6.8548020        1
    18         0.4874213        1        84         7.0367491        1
    19         0.5262391        1        85         7.2124309        1
    20         0.5659519        1        86         7.2501445        1
    21         0.5871436        1        87         7.4814295        1
    22         0.6262852        1        88         7.6100906        1
    23         0.6670865        1        89         7.9249167        1
    24         0.6931085        1        90        10.6745607        1
    25         0.7500264        1        91        12.6833705        1
    26         0.7704923        1        92        14.2156204        1
    27         0.8036044        1        93         0.1767512        2
    28         0.9962812        1        94         0.4427159        2
    29         1.0636669        1        95         0.7050194        2
    30         1.1797690        1        96         0.7271216        2
    31         1.2232068        1        97         0.8536090        2
    32         1.2601502        1        98         0.8787875        2
    33         1.3896140        1        99         0.8956666        2
    34         1.4501916        1       100         1.1419860        2
    35         1.5391120        1       101         1.2777161        2
    36         1.5456101        1       102         1.6551400        2
    37         1.6684081        1       103         1.7395631        2
    38         1.7918758        1       104         2.0828138        2
    39         1.8674617        1       105         2.1360734        2
    40         1.9780682        1       106         2.4066026        2
    41         2.1449975        1       107         2.9477698        2
    42         2.2474435        1       108         3.1206910        2
    43         2.3321494        1       109         3.2011052        2
    44         2.4768415        1       110         3.2382864        2
    45         2.6009019        1       111         3.3957066        2
    46         2.6983508        1       112         3.4648541        2
    47         2.7988163        1       113         3.5752511        2
    48         2.8967798        1       114         3.7120115        2
    49         2.9815716        1       115         3.8032219        2
    50         3.2636277        1       116         3.8578446        2
    51         3.3066238        1       117         3.9839799        2
    52         3.3345666        1       118         4.1439118        2
    53         3.4213482        1       119         4.1750081        2
    54         3.4338059        1       120         4.2059555        2
    55         3.5936944        1       121         4.5606351        2
    56         3.6639132        1       122         4.8915557        2
    57         3.7455073        1       123         5.1298809        2
    58         3.7988557        1       124         5.2365614        2
    59         3.8692187        1       125         5.2964986        2
    60         3.9657172        1       126         5.6587080        2
    61         4.1034321        1       127         5.9100875        2
    62         4.1548535        1       128         6.0656825        2
    63         4.1890503        1       129         6.3752540        2
    64         4.2250491        1       130         6.9139564        2
    65         4.4087610        1       131         7.0448476        2
    66         4.4651133        1       132         7.2443630        2
------------------------------------------------------------------------
  -20.6134069241821       -15.5500197086912       -11.3473934423499     
  -1.43333419233402       -1.19767249674641      -0.877329383795669     
 -0.727145441085917      -0.673402148145583      -0.582988244058496     
 -0.451398001196026      -0.606497445420650      -0.422018363844912     
  0.128422528337436       0.178258661740442       0.200445099337010     
  0.340220885501382       0.342784413152610       0.487421270148715     
  0.526239072503085       0.565951909131191       0.587143580003210     
  0.626285199054094       0.667086469912895       0.693108451539485     
  0.750026362563831       0.770492345258450       0.803604377314875     
  0.996281214283815        1.06366687340813        1.17976895411962     
   1.22320677975167        1.26015021405070        1.38961401343031     
   1.45019159999415        1.53911202926060        1.54561011121992     
   1.66840808879863        1.79187579749383        1.86746165585187     
   1.97806824311220        2.14499752516238        2.24744350385522     
   2.33214935221087        2.47684145445110        2.60090194934006     
   2.69835084038145        2.79881630400262        2.89677976558323     
   2.98157160092310        3.26362770344057        3.30662383739951     
   3.33456664298324        3.42134819543888        3.43380594972047     
   3.59369437146345        3.66391321986101        3.74550731380967     
   3.79885565482972        3.86921870322258        3.96571717075846     
   4.10343213122781        4.15485349554098        4.18905025677132     
   4.22504910443107        4.40876104860862        4.46511333337318     
   4.56204035854336        4.62976784031440        4.71463280282000     
   4.98087039323157        5.09238555779319        5.18240919383445     
   5.26291424570496        5.35647468796963        5.42989966443820     
   5.60198657362008        5.67261160504585        5.81840947084762     
   5.93052697271791        6.15596068072017        6.34463215470349     
   6.55136690835369        6.85480204887631        7.03674912239818     
   7.21243091742048        7.25014449856286        7.48142948362763     
   7.61009059268374        7.92491674697902        10.6745606663913     
   12.6833704873408        14.2156203856432       0.176751201465952     
  0.442715874306676       0.705019373524368       0.727121557884375     
  0.853608972342960       0.878787509130365       0.895666563513682     
   1.14198598104356        1.27771613319013        1.65514000223824     
   1.73956311998250        2.08281381845354        2.13607343870635     
   2.40660259933770        2.94776984367790        3.12069103529224     
   3.20110517133599        3.23828636518421        3.39570663536450     
   3.46485414089932        3.57525113547840        3.71201146338056     
   3.80322186335543        3.85784462928993        3.98397992444339     
   4.14391175633484        4.17500808751747        4.20595549357332     
   4.56063510682378        4.89155571877919        5.12988088014820     
   5.23656137360056        5.29649860713283        5.65870801085952     
   5.91008754768001        6.06568249801743        6.37525404046590     
   6.91395640521301        7.04484755470999        7.24436298214818     
 @CHECKOUT-I, Total execution time (CPU/WALL):        1.83/       2.18 seconds.
--executable xvtran finished with status     0 in        2.28 seconds (walltime).
 --invoking executable--
/home/orgChemistry/bin/cfour_v21/bin/xintprc
 @GETMEM-I,  Allocated    4768 MB of main memory.
  @GMOIAA-I, Processing MO integrals for spin case AA.
  @GMOIAA-I, Generation of integral list completed.
                      TYPE                NUMBER
                      ----               --------
                      PPPP                     0
                      PPPH               5364800
                      PPHH                544720
                      PHPH                299480
                      PHHH                 62240
                      HHHH                  1921

                     TOTAL               6273161

  @FORMT2-I, Second-order MP correlation energies:
            ------------------------------------------------
            E(SCF)                  =   -168.974988456630 a.u.
            E2(AA)                  =     -0.075579699725 a.u.
            E2(AB)                  =     -0.455900940867 a.u.
            E2(TOT)                 =     -0.607060340318 a.u.
            Total MP2 energy        =   -169.582048796947 a.u.
            ------------------------------------------------
   Largest T2 amplitudes for spin case AB:
       _       _                 _       _                 _       _
   i   j   a   b             i   j   a   b             i   j   a   b
-----------------------------------------------------------------------------
[ 12  12  93  93]-0.07529 [ 11  11  93  93]-0.02956 [ 12  12  95  95]-0.02154
[ 12  12  95  93]-0.02002 [ 12  12  93  95]-0.02002 [ 12  11  93  93]-0.01728
[ 11  12  93  93]-0.01728 [ 12   9  93  26] 0.01693 [  9  12  26  93] 0.01693
[ 12  12  96  93]-0.01652 [ 12  12  93  96]-0.01652 [ 12  10  93  16]-0.01622
[ 10  12  16  93]-0.01622 [ 12  10  93  24] 0.01497 [ 10  12  24  93] 0.01497
-----------------------------------------------------------------------------
   Norm of T2AB vector (  1088000 symmetry allowed elements):  0.3528060829.
-----------------------------------------------------------------------------
 @CHECKOUT-I, Total execution time (CPU/WALL):        0.49/       1.24 seconds.
--executable xintprc finished with status     0 in        1.34 seconds (walltime).
  calling xecc 
 --invoking executable--
/home/orgChemistry/bin/cfour_v21/bin/xecc
 @GETMEM-I,  Allocated    4768 MB of main memory.
 CCSD(T) energy will be calculated.
 AO based algorithm is used. 
   Frozen core orbitals in analytic derivative calculation
 Largest T2 amplitudes for spin case AB:
        _       _                 _       _                 _       _
    i   j   a   b             i   j   a   b             i   j   a   b
 -----------------------------------------------------------------------------
 [ 12  12  93  93]-0.07529 [ 11  11  93  93]-0.02956 [ 12  12  95  95]-0.02154
 [ 12  12  95  93]-0.02002 [ 12  12  93  95]-0.02002 [ 12  11  93  93]-0.01728
 [ 11  12  93  93]-0.01728 [ 12   9  93  26] 0.01693 [  9  12  26  93] 0.01693
 [ 12  12  96  93]-0.01652 [ 12  12  93  96]-0.01652 [ 12  10  93  16]-0.01622
 [ 10  12  16  93]-0.01622 [ 12  10  93  24] 0.01497 [ 10  12  24  93] 0.01497
 -----------------------------------------------------------------------------
 Norm of T2AB vector (  1088000 symmetry allowed elements):  0.3528060829.
 -----------------------------------------------------------------------------
 The total correlation energy is -0.607060340318 a.u.
 Resorts of amplitudes and integrals (CPU/WALL):       0.03/       0.06 seconds.
 Starting iterative solution of the CC equations.
 The DIIS procedure is used to accelerate convergence.
 5 expansion vectors are used in the DIIS extrapolation.
 Convergence criterium is 10**(-10).
 Maximum number of iterations is 100.
 >>>>>>>>>>>>>>>>>>>>>>>>>>>>>>>>>>>>>>>>>>>>>>>>>>>>>>>>>>>>>>>>>>>>>>>>>>>>>>>
 Iteration Nr.   1 started:
 Generation of Intermediates required (CPU/WALL):      0.39/       0.65 seconds.
 Transformation of t(ab,ij) amplitudes required    0.0 seconds.
 Contraction of t(mu nu,ij) with AO integrals required    2.6 seconds.
 Backtransformation of t(mu nu,ij) increments required    0.0 seconds.
 Construction of Hbar required (CPU/WALL):             2.92/       3.31 seconds.
   Frozen core orbitals in analytic derivative calculation
 Amplitude changes are:
 -------------------------------------------------------------------
              Spin      RMS          Max.      Max. change for
  Amplitude   Case     Change       Change       i    j    a    b
 -------------------------------------------------------------------
     T1        AA    0.0000550874 0.0284143123   11        93
     T2        AB    0.0000000430 0.0045300886   11   11   93   93
 -------------------------------------------------------------------
 The total correlation energy is -0.600569395810 a.u.
 Convergence information after     1 iterations: 
 Largest element of residual vector :  0.28414312E-01.
 Largest element of DIIS residual   :  0.28414312E-01.
 Iteration Nr.   1 required (CPU/WALL):                3.41/       4.18 seconds.
 >>>>>>>>>>>>>>>>>>>>>>>>>>>>>>>>>>>>>>>>>>>>>>>>>>>>>>>>>>>>>>>>>>>>>>>>>>>>>>>
 Iteration Nr.   2 started:
 Generation of Intermediates required (CPU/WALL):      0.38/       0.64 seconds.
 Transformation of t(ab,ij) amplitudes required    0.0 seconds.
 Contraction of t(mu nu,ij) with AO integrals required    2.6 seconds.
 Backtransformation of t(mu nu,ij) increments required    0.0 seconds.
 Construction of Hbar required (CPU/WALL):             2.90/       3.26 seconds.
   Frozen core orbitals in analytic derivative calculation
 Amplitude changes are:
 -------------------------------------------------------------------
              Spin      RMS          Max.      Max. change for
  Amplitude   Case     Change       Change       i    j    a    b
 -------------------------------------------------------------------
     T1        AA    0.0000067135 0.0020917738   12        93
     T2        AB    0.0000000228-0.0111878743   12   12   93   93
 -------------------------------------------------------------------
 The total correlation energy is -0.617232578775 a.u.
 Convergence information after     2 iterations: 
 Largest element of residual vector : -0.11187874E-01.
 Largest element of DIIS residual   : -0.99304326E-02.
 Iteration Nr.   2 required (CPU/WALL):                3.42/       4.18 seconds.
 >>>>>>>>>>>>>>>>>>>>>>>>>>>>>>>>>>>>>>>>>>>>>>>>>>>>>>>>>>>>>>>>>>>>>>>>>>>>>>>
 Iteration Nr.   3 started:
 Generation of Intermediates required (CPU/WALL):      0.38/       0.64 seconds.
 Transformation of t(ab,ij) amplitudes required    0.0 seconds.
 Contraction of t(mu nu,ij) with AO integrals required    2.7 seconds.
 Backtransformation of t(mu nu,ij) increments required    0.0 seconds.
 Construction of Hbar required (CPU/WALL):             2.96/       3.37 seconds.
   Frozen core orbitals in analytic derivative calculation
 Amplitude changes are:
 -------------------------------------------------------------------
              Spin      RMS          Max.      Max. change for
  Amplitude   Case     Change       Change       i    j    a    b
 -------------------------------------------------------------------
     T1        AA    0.0000093606 0.0061183932   11        93
     T2        AB    0.0000000070-0.0030875941   12   12   93   93
 -------------------------------------------------------------------
 The total correlation energy is -0.616865191977 a.u.
 Convergence information after     3 iterations: 
 Largest element of residual vector :  0.61183932E-02.
 Largest element of DIIS residual   :  0.38944577E-02.
 Iteration Nr.   3 required (CPU/WALL):                3.50/       4.33 seconds.
 >>>>>>>>>>>>>>>>>>>>>>>>>>>>>>>>>>>>>>>>>>>>>>>>>>>>>>>>>>>>>>>>>>>>>>>>>>>>>>>
 Iteration Nr.   4 started:
 Generation of Intermediates required (CPU/WALL):      0.38/       0.63 seconds.
 Transformation of t(ab,ij) amplitudes required    0.0 seconds.
 Contraction of t(mu nu,ij) with AO integrals required    2.7 seconds.
 Backtransformation of t(mu nu,ij) increments required    0.0 seconds.
 Construction of Hbar required (CPU/WALL):             2.97/       3.33 seconds.
   Frozen core orbitals in analytic derivative calculation
 Amplitude changes are:
 -------------------------------------------------------------------
              Spin      RMS          Max.      Max. change for
  Amplitude   Case     Change       Change       i    j    a    b
 -------------------------------------------------------------------
     T1        AA    0.0000017823 0.0008074525   12        93
     T2        AB    0.0000000023-0.0012231379   12   12   93   93
 -------------------------------------------------------------------
 The total correlation energy is -0.618683705419 a.u.
 Convergence information after     4 iterations: 
 Largest element of residual vector : -0.12231379E-02.
 Largest element of DIIS residual   :  0.72203293E-03.
 Iteration Nr.   4 required (CPU/WALL):                3.55/       4.35 seconds.
 >>>>>>>>>>>>>>>>>>>>>>>>>>>>>>>>>>>>>>>>>>>>>>>>>>>>>>>>>>>>>>>>>>>>>>>>>>>>>>>
 Iteration Nr.   5 started:
 Generation of Intermediates required (CPU/WALL):      0.38/       0.64 seconds.
 Transformation of t(ab,ij) amplitudes required    0.0 seconds.
 Contraction of t(mu nu,ij) with AO integrals required    2.7 seconds.
 Backtransformation of t(mu nu,ij) increments required    0.0 seconds.
 Construction of Hbar required (CPU/WALL):             2.97/       3.62 seconds.
   Frozen core orbitals in analytic derivative calculation
 Amplitude changes are:
 -------------------------------------------------------------------
              Spin      RMS          Max.      Max. change for
  Amplitude   Case     Change       Change       i    j    a    b
 -------------------------------------------------------------------
     T1        AA    0.0000010453 0.0007495684   11        93
     T2        AB    0.0000000008-0.0004484425   12   12   93   93
 -------------------------------------------------------------------
 The total correlation energy is -0.618919176260 a.u.
 Convergence information after     5 iterations: 
 Largest element of residual vector :  0.74956837E-03.
 Largest element of DIIS residual   :  0.23011002E-03.
 Iteration Nr.   5 required (CPU/WALL):                3.59/       4.70 seconds.
 Largest T1 amplitudes for spin case AA:
    i       a                 i       a                 i       a    
 -----------------------------------------------------------------------------
 [ 11      93    ] 0.03740 [ 12      94    ] 0.01716 [ 10      16    ] 0.01092
 [ 10      13    ]-0.00990 [ 10      22    ]-0.00959 [ 11      94    ] 0.00925
 [ 12      93    ] 0.00913 [ 12      95    ]-0.00879 [ 12     100    ]-0.00865
 [  9      13    ]-0.00819 [ 10      15    ] 0.00734 [ 12      98    ] 0.00718
 [  8      19    ] 0.00718 [ 11      96    ] 0.00673 [  8      22    ] 0.00575
 -----------------------------------------------------------------------------
 Norm of T1AA vector (      880 symmetry allowed elements):  0.0601247820.
 -----------------------------------------------------------------------------
 Largest T2 amplitudes for spin case AB:
        _       _                 _       _                 _       _
    i   j   a   b             i   j   a   b             i   j   a   b
 -----------------------------------------------------------------------------
 [ 12  12  93  93]-0.09362 [ 11  11  93  93]-0.02988 [ 12  12  95  93]-0.02527
 [ 12  12  93  95]-0.02527 [ 12  11  93  93]-0.02361 [ 11  12  93  93]-0.02361
 [ 12  12  95  95]-0.02122 [ 12  12  96  93]-0.01953 [ 12  12  93  96]-0.01953
 [ 12  10  93  16]-0.01581 [ 10  12  16  93]-0.01581 [  6   6  93  93]-0.01543
 [ 12   9  93  26] 0.01529 [  9  12  26  93] 0.01529 [ 10  10  93  93]-0.01524
 -----------------------------------------------------------------------------
 Norm of T2AB vector (  1088000 symmetry allowed elements):  0.3846792893.
 -----------------------------------------------------------------------------
 >>>>>>>>>>>>>>>>>>>>>>>>>>>>>>>>>>>>>>>>>>>>>>>>>>>>>>>>>>>>>>>>>>>>>>>>>>>>>>>
 Iteration Nr.   6 started:
 Generation of Intermediates required (CPU/WALL):      0.38/       0.62 seconds.
 Transformation of t(ab,ij) amplitudes required    0.0 seconds.
 Contraction of t(mu nu,ij) with AO integrals required    2.7 seconds.
 Backtransformation of t(mu nu,ij) increments required    0.0 seconds.
 Construction of Hbar required (CPU/WALL):             2.97/       3.32 seconds.
   Frozen core orbitals in analytic derivative calculation
 Amplitude changes are:
 -------------------------------------------------------------------
              Spin      RMS          Max.      Max. change for
  Amplitude   Case     Change       Change       i    j    a    b
 -------------------------------------------------------------------
     T1        AA    0.0000002722 0.0001385599   11        93
     T2        AB    0.0000000002-0.0000480929   12   12   93   93
 -------------------------------------------------------------------
 The total correlation energy is -0.618934740226 a.u.
 Convergence information after     6 iterations: 
 Largest element of residual vector :  0.13855987E-03.
 Largest element of DIIS residual   :  0.76809149E-04.
 Iteration Nr.   6 required (CPU/WALL):                3.59/       4.38 seconds.
 >>>>>>>>>>>>>>>>>>>>>>>>>>>>>>>>>>>>>>>>>>>>>>>>>>>>>>>>>>>>>>>>>>>>>>>>>>>>>>>
 Iteration Nr.   7 started:
 Generation of Intermediates required (CPU/WALL):      0.38/       0.61 seconds.
 Transformation of t(ab,ij) amplitudes required    0.0 seconds.
 Contraction of t(mu nu,ij) with AO integrals required    2.7 seconds.
 Backtransformation of t(mu nu,ij) increments required    0.0 seconds.
 Construction of Hbar required (CPU/WALL):             2.95/       3.32 seconds.
   Frozen core orbitals in analytic derivative calculation
 Amplitude changes are:
 -------------------------------------------------------------------
              Spin      RMS          Max.      Max. change for
  Amplitude   Case     Change       Change       i    j    a    b
 -------------------------------------------------------------------
     T1        AA    0.0000000935 0.0000521630   11        93
     T2        AB    0.0000000001 0.0000182161   11   11   93   93
 -------------------------------------------------------------------
 The total correlation energy is -0.618936448596 a.u.
 Convergence information after     7 iterations: 
 Largest element of residual vector :  0.52162961E-04.
 Largest element of DIIS residual   :  0.32180942E-04.
 Iteration Nr.   7 required (CPU/WALL):                3.57/       4.36 seconds.
 >>>>>>>>>>>>>>>>>>>>>>>>>>>>>>>>>>>>>>>>>>>>>>>>>>>>>>>>>>>>>>>>>>>>>>>>>>>>>>>
 Iteration Nr.   8 started:
[...]
 H #6 z    0.000000    0.000000    0.000517    0.000000    0.000000   -0.003333


           O #3 x      O #3 y      O #3 z      H #4 x      H #4 y      H #4 z

 O #3 x    0.391707
 O #3 y   -0.041264    0.639904
 O #3 z    0.000000    0.000000    0.032788

 H #4 x   -0.006779    0.037412    0.000000    0.070038
 H #4 y    0.003970   -0.017023    0.000000    0.016269    0.358315
 H #4 z    0.000000    0.000000    0.004770    0.000000    0.000000    0.028371

 H #5 x    0.006497   -0.001298    0.000000   -0.002800   -0.001303    0.000000
 H #5 y    0.003237    0.006900    0.000000   -0.005060    0.000475    0.000000
 H #5 z    0.000000    0.000000   -0.011072    0.000000    0.000000    0.013187

 H #6 x   -0.052361   -0.080645    0.000000   -0.005384    0.002445    0.000000
 H #6 y   -0.029797   -0.494258    0.000000    0.003598    0.001280    0.000000
 H #6 z    0.000000    0.000000   -0.010430    0.000000    0.000000    0.004782


           H #5 x      H #5 y      H #5 z      H #6 x      H #6 y      H #6 z

 H #5 x    0.046453
 H #5 y   -0.018639    0.422020
 H #5 z    0.000000    0.000000    0.024369

 H #6 x   -0.001867   -0.003474    0.000000    0.055285
 H #6 y    0.001830    0.000416    0.000000    0.031117    0.517439
 H #6 z    0.000000    0.000000    0.000400    0.000000    0.000000    0.008064




                           Total dipole moment
                           -------------------

                               au             Debye

                    x      0.49386591      1.25528215
                    y     -0.57839437     -1.47013211

  Conversion factor used: 1 a.u. =   2.54174691 Debye 



                     Total dipole moment derivatives
                     -------------------------------


           Symmetry 1
                              Ex             Ey

               C #1 x     1.57487588    -0.02497727
               C #1 y    -0.21988791     0.60476256
               N #2 x    -0.87748902    -0.14281780
               N #2 y    -0.24400175    -0.31273649
               O #3 x    -1.24659269     0.14814746
               O #3 y     0.50626520    -0.35602058
               H #4 x     0.03762047    -0.02619962
               H #4 y    -0.01198334    -0.04572842
               H #5 x     0.24204084     0.16667774
               H #5 y     0.05983621    -0.05362482
               H #6 x     0.26954452    -0.12083051
               H #6 y    -0.09022841     0.16334776

           Symmetry 2
                              Ez

               C #1 z     0.08288814
               N #2 z    -0.46424983
               O #3 z    -0.30872640
               H #4 z     0.12339499
               H #5 z     0.24783573
               H #6 z     0.31885736



                       Ex          Ey          Ez

      C #1    x    1.574876   -0.024977    0.000000
      C #1    y   -0.219888    0.604763    0.000000
      C #1    z    0.000000    0.000000    0.082888

      N #2    x   -0.877489   -0.142818    0.000000
      N #2    y   -0.244002   -0.312736    0.000000
      N #2    z    0.000000    0.000000   -0.464250

      O #3    x   -1.246593    0.148147    0.000000
      O #3    y    0.506265   -0.356021    0.000000
      O #3    z    0.000000    0.000000   -0.308726

      H #4    x    0.037620   -0.026200    0.000000
      H #4    y   -0.011983   -0.045728    0.000000
      H #4    z    0.000000    0.000000    0.123395

      H #5    x    0.242041    0.166678    0.000000
      H #5    y    0.059836   -0.053625    0.000000
      H #5    z    0.000000    0.000000    0.247836

      H #6    x    0.269545   -0.120831    0.000000
      H #6    y   -0.090228    0.163348    0.000000
      H #6    z    0.000000    0.000000    0.318857

 @CHECKOUT-I, Total execution time (CPU/WALL):       54.08/      54.85 seconds.
--executable xvdint finished with status     0 in       54.86 seconds (walltime).
 --invoking executable--
/home/orgChemistry/bin/cfour_v21/bin/xjoda
  igrd and ihes are                      0                     0
  gradient from JOBARC 
   0.000000115999740   0.000000137034662   0.000000000000000
  -0.000000329287613  -0.000000017539676   0.000000000000000
   0.000000210072066   0.000000086718356   0.000000000000000
   0.000000006754500   0.000000159368722   0.000000000000000
  -0.000000005423873  -0.000000169710200   0.000000000000000
   0.000000001885125  -0.000000195871869   0.000000000000000
 
  masses used (in AMU) in vibrational analysis: 
  12.000000000     14.003074002     15.994914630
   1.007825035      1.007825035      1.007825035
                     Normal Coordinate Analysis
  ----------------------------------------------------------------
    Irreducible         Harmonic       Infrared        Type 
   Representation       Frequency      Intensity 
  ----------------------------------------------------------------
                       (cm-1)         (km/mol)
  ----------------------------------------------------------------
      ----                 0.3638i        0.5223      TRANSLATION
      ----                 0.2014i        1.4652      TRANSLATION
      ----                 0.1204i        0.0000      TRANSLATION
      ----                 0.6054         6.2499       ROTATION  
      ----                 0.7954         2.4972       ROTATION  
      ----                 1.0397         5.8614       ROTATION  
       A''               502.7362        70.6406       VIBRATION 
        A'               589.7987        34.2222       VIBRATION 
       A''               847.2145        43.7779       VIBRATION 
       A''              1076.5276        65.8646       VIBRATION 
        A'              1089.0795        69.5966       VIBRATION 
        A'              1136.8814       218.1911       VIBRATION 
        A'              1370.7111        29.3167       VIBRATION 
        A'              1412.3703         2.9611       VIBRATION 
        A'              1716.8687       223.6442       VIBRATION 
        A'              3190.9155         9.2580       VIBRATION 
        A'              3441.8367         6.6441       VIBRATION 
        A'              3799.2361        35.7723       VIBRATION 
  ----------------------------------------------------------------
 
 
                                   Normal Coordinates 

               A''                        A'                       A''
               502.74                    589.80                    847.21 
             VIBRATION                 VIBRATION                 VIBRATION 
 C     -0.000 0.0000  0.1962    0.0255  0.4430  0.0000   -0.0000  0.0000  0.5537
 N      0.000-0.0000 -0.0559    0.4346 -0.2138  0.0000   -0.0000 -0.0000 -0.4044
 O     -0.000 0.0000 -0.3079   -0.4378 -0.2017  0.0000    0.0000  0.0000 -0.2050
 H     -0.000 0.0000  0.1276   -0.0068  0.1273  0.0000   -0.0000  0.0000 -0.2445
 H      0.000 0.0000 -0.2546    0.4199 -0.0306  0.0000    0.0000  0.0000  0.6542
 H      0.000 0.0000  0.8846   -0.3770 -0.0245 -0.0000   -0.0000 -0.0000  0.0038

               A''                        A'                        A'
              1076.53                   1089.08                   1136.88 
             VIBRATION                 VIBRATION                 VIBRATION 
 C      0.000-0.0000  0.3296    0.3163 -0.3523 -0.0000    0.0341 -0.1600  0.0000
 N      0.000 0.0000  0.0783    0.4123  0.0719 -0.0000   -0.1089  0.1374  0.0000
 O     -0.000 0.0000 -0.0059   -0.5741  0.2541 -0.0000   -0.3111  0.0196 -0.0000
 H     -0.000-0.0000 -0.7754    0.0422 -0.1000  0.0000    0.3177 -0.0661 -0.0000
 H     -0.000 0.0000 -0.5216   -0.4351 -0.0149  0.0000    0.6053  0.0764 -0.0000
 H     -0.000 0.0000 -0.1085    0.0516  0.0503  0.0000    0.6045 -0.0486 -0.0000

                A'                        A'                        A'
              1370.71                   1412.37                   1716.87 
             VIBRATION                 VIBRATION                 VIBRATION 
 C      0.296-0.4220  0.0000    0.0570 -0.1565  0.0000    0.7064  0.3141 -0.0000
 N     -0.262 0.1163  0.0000    0.1171  0.2536  0.0000   -0.4785 -0.2699 -0.0000
 O      0.034 0.2541 -0.0000   -0.0261 -0.1104  0.0000   -0.1401 -0.0260 -0.0000
 H      0.045-0.1295  0.0000   -0.8971  0.0010 -0.0000   -0.1465  0.1364 -0.0000
 H      0.400 0.0360  0.0000    0.2148  0.0732 -0.0000   -0.0955 -0.0977 -0.0000
 H     -0.628 0.1037  0.0000    0.1530 -0.0398 -0.0000    0.1461 -0.0131 -0.0000

                A'                        A'                        A'
              3190.92                   3441.84                   3799.24 
             VIBRATION                 VIBRATION                 VIBRATION 
 C      0.030 0.2895 -0.0000    0.0260 -0.0141  0.0000    0.0044  0.0150  0.0000
 N     -0.010-0.0168  0.0000   -0.0054 -0.2565 -0.0000    0.0015 -0.0046  0.0000
 O     -0.002-0.0072  0.0000   -0.0002  0.0017  0.0000    0.0142  0.2380  0.0000
 H     -0.054-0.9542  0.0000   -0.0056  0.0265 -0.0000   -0.0028 -0.0203 -0.0000
 H     -0.010 0.0241  0.0000   -0.0556  0.9640 -0.0000   -0.0042  0.0056  0.0000
 H      0.009 0.0225 -0.0000   -0.0077  0.0074  0.0000   -0.0706 -0.9682 -0.0000
            Gradient vector in normal coordinate representation
         ----------------------------------------------------------
   i    W(I)     dE/dQ(i)     dE/dq      dE/dq     [dE/dQ(i)]/w(i)
                              (cm-1)      (eV)        (relative)
         ----------------------------------------------------------
    7   502.74 -0.0000000000     -0.00000     -0.00000  -0.0000000000
    8   589.80 -0.0000000191     -0.00189     -0.00000  -0.0000000000
    9   847.21  0.0000000000      0.00000      0.00000  -0.0000000000
   10  1076.53 -0.0000000000     -0.00000     -0.00000  -0.0000000000
   11  1089.08 -0.0000000850     -0.00621     -0.00000  -0.0000000000
   12  1136.88 -0.0000000261     -0.00186     -0.00000  -0.0000000000
   13  1370.71 -0.0000000268     -0.00174     -0.00000  -0.0000000000
   14  1412.37 -0.0000000309     -0.00198     -0.00000  -0.0000000000
   15  1716.87  0.0000001121      0.00651      0.00000  -0.0000000000
   16  3190.92 -0.0000001470     -0.00627     -0.00000  -0.0000000000
   17  3441.84 -0.0000001580     -0.00648     -0.00000  -0.0000000000
   18  3799.24  0.0000001911      0.00747      0.00000  -0.0000000000
         ----------------------------------------------------------
 
                      Normal modes in internal coordinates 
---------------------------------------------------------------------------
              0.364         0.201         0.120         0.605         0.795
---------------------------------------------------------------------------
R12       -0.000000     -0.000000     -0.000000      0.000000      0.000000
R13       -0.000000     -0.000000     -0.000000     -0.000000     -0.000000
A213      -0.000000     -0.000000     -0.000000      0.000000      0.000000
R14       -0.000000     -0.000000     -0.000000     -0.000000     -0.000000
A314       0.000000      0.000000      0.000000     -0.000000      0.000000
D2314     -0.000000      0.000000     -0.000000     -0.000000     -0.000000
R25        0.000000      0.000000     -0.000000     -0.000000      0.000000
A125      -0.000000     -0.000000      0.000000     -0.000000     -0.000000
D3125     -0.000000      0.000000     -0.000000      0.000000     -0.000000
R36        0.000000      0.000000     -0.000000     -0.000000     -0.000000
A136      -0.000000     -0.000000      0.000000      0.000000      0.000000
D2136      0.000000     -0.000001      0.000000     -0.000002      0.000000
---------------------------------------------------------------------------
              1.040       502.736       589.799       847.214      1076.528
---------------------------------------------------------------------------
R12       -0.000000     -0.000000     -0.060161     -0.000000     -0.000000
R13       -0.000000     -0.000000     -0.163044     -0.000000     -0.000000
A213       0.000000      0.000000     -0.786439      0.000000      0.000000
R14       -0.000000     -0.000000     -0.008935      0.000000      0.000000
A314      -0.000000     -0.000000      0.407292     -0.000000      0.000000
D2314     -0.000001      0.097225      0.000000      0.532796      0.927749
R25       -0.000000     -0.000000      0.013189      0.000000     -0.000000
A125      -0.000000     -0.000000     -0.310582     -0.000000      0.000000
D3125     -0.000000     -0.044462      0.000000      0.783537     -0.371287
R36       -0.000000      0.000000     -0.003520      0.000000     -0.000000
A136      -0.000000      0.000000     -0.297821     -0.000000     -0.000000
D2136     -0.000002     -0.994269      0.000000     -0.319685     -0.037772
---------------------------------------------------------------------------
           1089.079      1136.881      1370.711      1412.370      1716.869
---------------------------------------------------------------------------
R12       -0.182692     -0.005204      0.122970     -0.135111      0.719032
R13       -0.717765     -0.181956     -0.256440     -0.058964     -0.350049
A213       0.162265      0.077170      0.248657      0.087806     -0.135696
R14       -0.002591     -0.000363     -0.017116     -0.023919      0.044798
A314       0.004656     -0.278931     -0.061756      0.926914      0.474185
D2314     -0.000000      0.000000     -0.000000     -0.000000      0.000000
R25       -0.048525      0.040349      0.072520      0.026626      0.055080
A125       0.612948     -0.660376     -0.581583     -0.280133     -0.034561
D3125      0.000000     -0.000000     -0.000000     -0.000000      0.000000
R36       -0.012913     -0.020203      0.036253     -0.006385     -0.020601
A136       0.216454      0.667065     -0.712999      0.177745      0.332466
D2136      0.000000      0.000000      0.000000      0.000000     -0.000000
---------------------------------------------------------------------------
           3190.915      3441.837      3799.236
---------------------------------------------------------------------------
R12        0.048251      0.036086      0.003209
R13        0.024767     -0.008463     -0.019505
A213      -0.059919     -0.021219      0.017633
R14       -0.994508      0.028658     -0.024115
A314       0.029555      0.006686     -0.018309
D2314      0.000000      0.000000      0.000000
R25       -0.027886     -0.998623     -0.007069
A125       0.031529     -0.001707      0.003802
D3125      0.000000      0.000000      0.000000
R36       -0.024096     -0.006015      0.999133
A136       0.034576     -0.004808     -0.007036
D2136      0.000000     -0.000000      0.000000
---------------------------------------------------------------------------
 
  ----------------------------------------------------------------
                    Dipole Moment Function
                   (Normal Coordinate Basis)
  ----------------------------------------------------------------
    Mode     Symmetry    d(Mu(x))/dQ   d(Mu(y))/dQ   d(Mu(z))/dQ
  ----------------------------------------------------------------
     Q7         A''        0.000000      0.000000      0.269187
     Q8          A'        0.005044      0.187294     -0.000000
     Q9         A''       -0.000000     -0.000000      0.211911
     Q10        A''        0.000000     -0.000000     -0.259928
     Q11         A'        0.182213     -0.195420      0.000000
     Q12         A'        0.471536     -0.038338     -0.000000
     Q13         A'        0.160795      0.064943      0.000000
     Q14         A'        0.053224     -0.014302     -0.000000
     Q15         A'        0.475807      0.054935     -0.000000
     Q16         A'        0.007531      0.097159     -0.000000
     Q17         A'        0.071763     -0.040811      0.000000
     Q18         A'        0.094229     -0.166780     -0.000000
  ----------------------------------------------------------------
---------------------------------------------------------------------------
------------------------------------------------------------
        Parameter                (MHz)                 (CM-1)
------------------------------------------------------------
 
           R6                -.124255E-03           -.414470E-08
           R5                0.130496E-02           0.435287E-07
           SI                            0.691383E+02
 
  A-reduced centrifugal distortion parameters (Ir representation) 
 
           DJ                0.839660E-02           0.280080E-06
           DK                0.107464E+01           0.358463E-04
           DJK               -.636311E-01           -.212250E-05
           DELJ              0.864510E-02           0.288370E-06
           DELK              0.107589E+01           0.358877E-04
           DELJK             -.651222E-01           -.217224E-05
           delJ              0.175798E-02           0.586400E-07
           delK              0.317531E-01           0.105917E-05
 
  S-reduced centrifugal distortion parameters (Ir representation) 
 
           DJ                0.841547E-02           0.280710E-06
           DK                0.107474E+01           0.358494E-04
           DJK               -.637443E-01           -.212628E-05
           D1                -.175798E-02           -.586400E-07
           D2                -.114818E-03           -.382990E-08
------------------------------------------------------------
   Rotationally projected vibrational frequencies 
            1               0.0000i
            2               0.0000i
            3               0.0000 
            4               0.0000 
            5               0.0000 
            6               0.0000 
            7             502.7362 
            8             589.7987 
            9             847.2145 
           10            1076.5276 
           11            1089.0795 
           12            1136.8814 
           13            1370.7111 
           14            1412.3703 
           15            1716.8687 
           16            3190.9155 
           17            3441.8367 
           18            3799.2361 
  Zero-point energy:   28.8404 kcal/mol =  120.6684 kJ/mol =   10087.088 cm-1 
 
  Finite temperature thermodynamic corrections:
=======================================================
Temperature     Entropy       Enthalpy     Gibbs Energy
    (K)        (J/(mol K))    (kJ/mol)      (kJ/mol) 
=======================================================
    298.15      251.8783       11.3492      -63.7483
    100.00      209.2515        3.3316      -17.5935
    200.00      234.1531        6.9595      -39.8711
    300.00      252.1873       11.4416      -64.2146
    400.00      268.0658       16.9867      -90.2396
    500.00      282.6611       23.5450     -117.7855
    600.00      296.1644       30.9632     -146.7355
    700.00      308.6761       39.0879     -176.9854
    800.00      320.2988       47.7979     -208.4411
    900.00      331.1345       57.0021     -241.0189
   1000.00      341.2758       66.6310     -274.6448
   1100.00      350.8025       76.6292     -309.2536
   1200.00      359.7818       86.9510     -344.7871
   1300.00      368.2701       97.5575     -381.1936
   1400.00      376.3154      108.4152     -418.4264
   1500.00      383.9588      119.4949     -456.4433
   1600.00      391.2356      130.7711     -495.2059
   1700.00      398.1770      142.2216     -534.6792
   1800.00      404.8101      153.8271     -574.8310
   1900.00      411.1592      165.5706     -615.6318
   2000.00      417.2457      177.4373     -657.0541
=======================================================
 @CHECKOUT-I, Total execution time (CPU/WALL):        0.03/       0.13 seconds.
--executable xjoda finished with status     0 in        0.14 seconds (walltime).
  The final electronic energy is      -169.620374290158964 a.u. 
  This computation required                         7469.88 seconds (walltime).

real	124m30.106s
user	79m58.878s
sys	19m15.763s
